##File Type: Far field
##File Format: 5
##Source: RWG_wire_XY_rad_theta450.0001
##Date: 2020-09-16 10:14:30
** File exported by POSTFEKO version 2018-319328 (x64)

#Configuration Name: StandardConfiguration1
#Request Name: FarField1
#Frequency: 3.00000000E+08
#Coordinate System: Spherical
#No. of Theta Samples: 1
#No. of Phi Samples: 181
#Result Type: RCS
#Incident Wave Direction: (4.50000000E+01, 0.00000000E+00)
#No. of Header Lines: 1
#                 "Theta"           "Phi"             "Re(Etheta)"      "Im(Etheta)"      "Re(Ephi)"        "Im(Ephi)"        "RCS(Theta)"      "RCS(Phi)"        "RCS(Total)"      
                   9.00000000E+01    0.00000000E+00    8.56284248E-07    1.03638512E-06    2.39419174E-07    5.54732061E-07    2.27114131E-11    4.58734355E-12    2.72987567E-11   
                   9.00000000E+01    2.00000000E+00    8.62486737E-07    1.04767239E-06    1.65115868E-02   -1.29809306E-02    2.31409815E-11    5.54349178E-03    5.54349180E-03   
                   9.00000000E+01    4.00000000E+00    8.75941005E-07    1.05106379E-06    3.27383043E-02   -2.63337670E-02    2.35243429E-11    2.21829598E-02    2.21829598E-02   
                   9.00000000E+01    6.00000000E+00    8.96469706E-07    1.04595855E-06    4.83776885E-02   -4.04140430E-02    2.38470409E-11    4.99349318E-02    4.99349318E-02   
                   9.00000000E+01    8.00000000E+00    9.23464871E-07    1.03145458E-06    6.30922290E-02   -5.55459823E-02    2.40857857E-11    8.87937926E-02    8.87937926E-02   
                   9.00000000E+01    1.00000000E+01    9.55826087E-07    1.00641118E-06    7.64956688E-02   -7.20027974E-02    2.42086978E-11    1.38682343E-01    1.38682343E-01   
                   9.00000000E+01    1.20000000E+01    9.91887849E-07    9.69552861E-07    8.81435650E-02   -8.99841602E-02    2.41761169E-11    1.99383529E-01    1.99383529E-01   
                   9.00000000E+01    1.40000000E+01    1.02934874E-06    9.19620027E-07    9.75303493E-02   -1.09589982E-01    2.39422010E-11    2.70455103E-01    2.70455103E-01   
                   9.00000000E+01    1.60000000E+01    1.06522001E-06    8.55569954E-07    1.04095152E-01   -1.30790980E-01    2.34575639E-11    3.51130546E-01    3.51130546E-01   
                   9.00000000E+01    1.80000000E+01    1.09581609E-06    7.76827827E-07    1.07238777E-01   -1.53397507E-01    2.26731804E-11    4.40211906E-01    4.40211906E-01   
                   9.00000000E+01    2.00000000E+01    1.11681323E-06    6.83580011E-07    1.06354058E-01   -1.77029396E-01    2.15457138E-11    5.35963156E-01    5.35963156E-01   
                   9.00000000E+01    2.20000000E+01    1.12340444E-06    5.77091632E-07    1.00871217E-01   -2.01090916E-01    2.00442696E-11    6.36016175E-01    6.36016175E-01   
                   9.00000000E+01    2.40000000E+01    1.11057611E-06    4.60017484E-07    9.03186415E-02   -2.24756356E-01    1.81583475E-11    7.37305111E-01    7.37305111E-01   
                   9.00000000E+01    2.60000000E+01    1.07352407E-06    3.36660827E-07    7.43975575E-02   -2.46972863E-01    1.59064421E-11    8.36048070E-01    8.36048070E-01   
                   9.00000000E+01    2.80000000E+01    1.00821130E-06    2.13120986E-07    5.30664095E-02   -2.66487704E-01    1.33443620E-11    9.27797008E-01    9.27797008E-01   
                   9.00000000E+01    3.00000000E+01    9.12046096E-07    9.72611487E-08    2.66274349E-02   -2.81906634E-01    1.05719344E-11    1.00757625E+00    1.00757625E+00   
                   9.00000000E+01    3.20000000E+01    7.84628387E-07   -1.57313702E-09   -4.19568485E-03   -2.91788157E-01    7.73641294E-12    1.07012614E+00    1.07012614E+00   
                   9.00000000E+01    3.40000000E+01    6.28476407E-07   -7.31420072E-08   -3.82035454E-02   -2.94774767E-01    5.03072465E-12    1.11025988E+00    1.11025988E+00   
                   9.00000000E+01    3.60000000E+01    4.49610470E-07   -1.07233462E-07   -7.37067956E-02   -2.89756649E-01    2.68478736E-12    1.12332807E+00    1.12332807E+00   
                   9.00000000E+01    3.80000000E+01    2.57844635E-07   -9.48983558E-08   -1.08568775E-01   -2.76056075E-01    9.48629708E-13    1.10576691E+00    1.10576691E+00   
                   9.00000000E+01    4.00000000E+01    6.66296598E-08   -2.99104074E-08   -1.40318817E-01   -2.53612511E-01    6.70308309E-14    1.05568416E+00    1.05568416E+00   
                   9.00000000E+01    4.20000000E+01   -1.07686983E-07    8.97135184E-08   -1.66343101E-01   -2.23140695E-01    2.46866372E-13    9.73413647E-01    9.73413647E-01   
                   9.00000000E+01    4.40000000E+01   -2.47258196E-07    2.60371878E-07   -1.84148871E-01   -1.86228409E-01    1.62018380E-12    8.61950323E-01    8.61950323E-01   
                   9.00000000E+01    4.60000000E+01   -3.34765474E-07    4.72007729E-07   -1.91683262E-01   -1.45339661E-01    4.20796505E-12    7.27166734E-01    7.27166734E-01   
                   9.00000000E+01    4.80000000E+01   -3.55919005E-07    7.08011140E-07   -1.87671690E-01   -1.03694373E-01    7.89115437E-12    5.77716099E-01    5.77716099E-01   
                   9.00000000E+01    5.00000000E+01   -3.02122530E-07    9.46144780E-07   -1.71925768E-01   -6.50090635E-02    1.23963221E-11    4.24550407E-01    4.24550407E-01   
                   9.00000000E+01    5.20000000E+01   -1.72863579E-07    1.16061643E-06   -1.45560801E-01   -3.31040815E-02    1.73027906E-11    2.80026828E-01    2.80026828E-01   
                   9.00000000E+01    5.40000000E+01    2.26889741E-08    1.32522519E-06   -1.11062338E-01   -1.14099604E-02    2.20758030E-11    1.56640189E-01    1.56640189E-01   
                   9.00000000E+01    5.60000000E+01    2.65384710E-07    1.41726389E-06   -7.21532344E-02   -2.43399782E-03    2.61263136E-11    6.54960943E-02    6.54960943E-02   
                   9.00000000E+01    5.80000000E+01    5.27460499E-07    1.42161398E-06   -3.34386698E-02   -7.27224457E-03    2.88926103E-11    1.47155992E-02    1.47155992E-02   
                   9.00000000E+01    6.00000000E+01    7.75692367E-07    1.33428066E-06    1.55205459E-04   -2.52645493E-02    2.99331390E-11    8.02138501E-03    8.02138504E-03   
                   9.00000000E+01    6.20000000E+01    9.76089203E-07    1.16455206E-06    2.40882938E-02   -5.38848062E-02    2.90148907E-11    4.37789511E-02    4.37789511E-02   
                   9.00000000E+01    6.40000000E+01    1.09949662E-06    9.35076711E-07    3.49555073E-02   -8.89313597E-02    2.61790331E-11    1.14739436E-01    1.14739436E-01   
                   9.00000000E+01    6.60000000E+01    1.12714355E-06    6.79458575E-07    3.11437886E-02   -1.25034455E-01    2.17664182E-11    2.08646370E-01    2.08646370E-01   
                   9.00000000E+01    6.80000000E+01    1.05498309E-06    4.37438761E-07    1.32565412E-02   -1.56435168E-01    1.63908449E-11    3.09732102E-01    3.09732102E-01   
                   9.00000000E+01    7.00000000E+01    8.95735588E-07    2.48285178E-07   -1.58116015E-02   -1.77925248E-01    1.08571906E-11    4.00960222E-01    4.00960222E-01   
                   9.00000000E+01    7.20000000E+01    6.77873315E-07    1.43521605E-07   -5.12120583E-02   -1.85785149E-01    6.03324877E-12    4.66699879E-01    4.66699879E-01   
                   9.00000000E+01    7.40000000E+01    4.41361746E-07    1.40454650E-07   -8.68755289E-02   -1.78533427E-01    2.69583458E-12    4.95385707E-01    4.95385707E-01   
                   9.00000000E+01    7.60000000E+01    2.30687617E-07    2.37982090E-07   -1.16537770E-01   -1.57315816E-01    1.38044410E-12    4.81660414E-01    4.81660414E-01   
                   9.00000000E+01    7.80000000E+01    8.63959661E-08    4.15831663E-07   -1.34878523E-01   -1.25819193E-01    2.26672488E-12    4.27541673E-01    4.27541673E-01   
                   9.00000000E+01    8.00000000E+01    3.68429802E-08    6.37718224E-07   -1.38549978E-01   -8.96866155E-02    5.12760623E-12    3.42305240E-01    3.42305240E-01   
                   9.00000000E+01    8.20000000E+01    9.19938284E-08    8.58047241E-07   -1.26873920E-01   -5.55165493E-02    9.35827587E-12    2.41011414E-01    2.41011414E-01   
                   9.00000000E+01    8.40000000E+01    2.40779482E-07    1.03093473E-06   -1.02041207E-01   -2.96277031E-02    1.40844031E-11    1.41876947E-01    1.41876947E-01   
                   9.00000000E+01    8.60000000E+01    4.52810102E-07    1.11968176E-06   -6.87453520E-02   -1.68352901E-02    1.83308693E-11    6.29493537E-02    6.29493538E-02   
                   9.00000000E+01    8.80000000E+01    6.84275901E-07    1.10461999E-06   -3.33030829E-02   -1.94961823E-02    2.12172966E-11    1.87137945E-02    1.87137946E-02   
                   9.00000000E+01    9.00000000E+01    8.86881943E-07    9.87521636E-07   -2.43061391E-03   -3.70326162E-02    2.21389110E-11    1.73079456E-02    1.73079456E-02   
                   9.00000000E+01    9.20000000E+01    1.01791475E-06    7.91499258E-07    1.80738785E-02   -6.60452848E-02    2.08931181E-11    5.89192473E-02    5.89192473E-02   
                   9.00000000E+01    9.40000000E+01    1.04922887E-06    5.56340013E-07    2.44650055E-02   -1.00998923E-01    1.77235516E-11    1.35708244E-01    1.35708244E-01   
                   9.00000000E+01    9.60000000E+01    9.73162546E-07    3.30272121E-07    1.57630573E-02   -1.35337312E-01    1.32716584E-11    2.33290424E-01    2.33290424E-01   
                   9.00000000E+01    9.80000000E+01    8.04094552E-07    1.59980530E-07   -6.10122244E-03   -1.62790713E-01    8.44663452E-12    3.33486860E-01    3.33486860E-01   
                   9.00000000E+01    1.00000000E+02    5.75360902E-07    8.10675718E-08   -3.67305519E-02   -1.78599798E-01    4.24255901E-12    4.17794391E-01    4.17794391E-01   
                   9.00000000E+01    1.02000000E+02    3.32304235E-07    1.11003941E-07   -7.01863766E-02   -1.80404781E-01    1.54249660E-12    4.70887194E-01    4.70887194E-01   
                   9.00000000E+01    1.04000000E+02    1.23066065E-07    2.45988381E-07   -1.00188541E-01   -1.68628981E-01    9.50715556E-13    4.83471972E-01    4.83471972E-01   
                   9.00000000E+01    1.06000000E+02   -1.08433550E-08    4.62205570E-07   -1.21333488E-01   -1.46301278E-01    2.68608142E-12    4.53971190E-01    4.53971190E-01   
                   9.00000000E+01    1.08000000E+02   -4.22316896E-08    7.20984069E-07   -1.30085533E-01   -1.18382923E-01    6.55463830E-12    3.88762820E-01    3.88762820E-01   
                   9.00000000E+01    1.10000000E+02    3.72870518E-08    9.76551756E-07   -1.25359183E-01   -9.07626839E-02    1.20014325E-11    3.00999632E-01    3.00999632E-01   
                   9.00000000E+01    1.12000000E+02    2.16661953E-07    1.18464092E-06   -1.08608166E-01   -6.91395412E-02    1.82252148E-11    2.08300285E-01    2.08300285E-01   
                   9.00000000E+01    1.14000000E+02    4.68426991E-07    1.31017915E-06   -8.34435658E-02   -5.80156386E-02    2.43284086E-11    1.29793556E-01    1.29793556E-01   
                   9.00000000E+01    1.16000000E+02    7.54442457E-07    1.33267224E-06   -5.48946029E-02   -5.99786131E-02    2.94706364E-11    8.30744094E-02    8.30744094E-02   
                   9.00000000E+01    1.18000000E+02    1.03298311E-06    1.24851007E-06   -2.84828626E-02   -7.53767608E-02    3.29971719E-11    8.15925589E-02    8.15925590E-02   
                   9.00000000E+01    1.20000000E+02    1.26570743E-06    1.07013091E-06   -9.29620192E-03   -1.02403282E-01    3.45222764E-11    1.32862371E-01    1.32862371E-01   
                   9.00000000E+01    1.22000000E+02    1.42326669E-06    8.22597030E-07   -1.22473307E-03   -1.37527232E-01    3.39587811E-11    2.37695911E-01    2.37695911E-01   
                   9.00000000E+01    1.24000000E+02    1.48875470E-06    5.38543192E-07   -6.46911054E-03   -1.76153953E-01    3.14965940E-11    3.90463079E-01    3.90463079E-01   
                   9.00000000E+01    1.26000000E+02    1.45872750E-06    2.52608849E-07   -2.53662153E-02   -2.13374062E-01    2.75416787E-11    5.80213650E-01    5.80213651E-01   
                   9.00000000E+01    1.28000000E+02    1.34200993E-06   -3.63035170E-09   -5.65146394E-02   -2.44666903E-01    2.26320815E-11    7.92382528E-01    7.92382528E-01   
                   9.00000000E+01    1.30000000E+02    1.15686006E-06   -2.05488316E-07   -9.71341064E-02   -2.66454710E-01    1.73485110E-11    1.01075273E+00    1.01075273E+00   
                   9.00000000E+01    1.32000000E+02    9.27238959E-07   -3.37366073E-07   -1.43565682E-01   -2.76447081E-01    1.22344670E-11    1.21936638E+00    1.21936638E+00   
                   9.00000000E+01    1.34000000E+02    6.78934371E-07   -3.93289767E-07   -1.91814211E-01   -2.73760800E-01    7.73621866E-12    1.40413694E+00    1.40413694E+00   
                   9.00000000E+01    1.36000000E+02    4.36153166E-07   -3.76039529E-07   -2.38047151E-01   -2.58838554E-01    4.16745224E-12    1.55400568E+00    1.55400568E+00   
                   9.00000000E+01    1.38000000E+02    2.18985445E-07   -2.95292506E-07   -2.78988391E-01   -2.33216293E-01    1.69837376E-12    1.66158033E+00    1.66158033E+00   
                   9.00000000E+01    1.40000000E+02    4.19124681E-08   -1.65261556E-07   -3.12174675E-01   -1.99201005E-01    3.65279724E-13    1.72327752E+00    1.72327752E+00   
                   9.00000000E+01    1.42000000E+02   -8.66718068E-08   -2.27340991E-09   -3.36069568E-01   -1.59519903E-01    9.44635503E-14    1.73905191E+00    1.73905191E+00   
                   9.00000000E+01    1.44000000E+02   -1.64100920E-07    1.77371278E-07   -3.50051384E-01   -1.16991884E-01    7.33746387E-13    1.71182962E+00    1.71182962E+00   
                   9.00000000E+01    1.46000000E+02   -1.92491190E-07    3.59043222E-07   -3.54304946E-01   -7.42567593E-02    2.08557636E-12    1.64677337E+00    1.64677337E+00   
                   9.00000000E+01    1.48000000E+02   -1.77481879E-07    5.30849883E-07   -3.49652527E-01   -3.35810733E-02    3.93706170E-12    1.55049633E+00    1.55049633E+00   
                   9.00000000E+01    1.50000000E+02   -1.26900169E-07    6.84140135E-07   -3.37358175E-01    3.25552139E-03    6.08402563E-12    1.43031858E+00    1.43031858E+00   
                   9.00000000E+01    1.52000000E+02   -4.95335523E-08    8.13538435E-07   -3.18933912E-01    3.50007223E-02    8.34781936E-12    1.29363108E+00    1.29363108E+00   
                   9.00000000E+01    1.54000000E+02    4.58747926E-08    9.16635115E-07   -2.95968268E-01    6.09112935E-02    1.05849610E-11    1.14740264E+00    1.14740264E+00   
                   9.00000000E+01    1.56000000E+02    1.51355095E-07    9.93466388E-07   -2.69989180E-01    8.06935292E-02    1.26905745E-11    9.97840237E-01    9.97840237E-01   
                   9.00000000E+01    1.58000000E+02    2.60162553E-07    1.04590362E-06   -2.42365809E-01    9.44197895E-02    1.45970826E-11    8.50193913E-01    8.50193913E-01   
                   9.00000000E+01    1.60000000E+02    3.66983896E-07    1.07704539E-06   -2.14248015E-01    1.02436111E-01    1.62697298E-11    7.08685103E-01    7.08685103E-01   
                   9.00000000E+01    1.62000000E+02    4.67950300E-07    1.09067595E-06   -1.86538476E-01    1.05272435E-01    1.77003804E-11    5.76531119E-01    5.76531119E-01   
                   9.00000000E+01    1.64000000E+02    5.60513731E-07    1.09082495E-06   -1.59890418E-01    1.03563254E-01    1.89007604E-11    4.56037276E-01    4.56037276E-01   
                   9.00000000E+01    1.66000000E+02    6.43240302E-07    1.08144039E-06   -1.34723459E-01    9.79830279E-02    1.98959752E-11    3.48730408E-01    3.48730408E-01   
                   9.00000000E+01    1.68000000E+02    7.15565206E-07    1.06616947E-06   -1.11250631E-01    8.91979511E-02    2.07188150E-11    2.55511729E-01    2.55511729E-01   
                   9.00000000E+01    1.70000000E+02    7.77542568E-07    1.04823180E-06   -8.95108047E-02    7.78336236E-02    2.14050826E-11    1.76812066E-01    1.76812066E-01   
                   9.00000000E+01    1.72000000E+02    8.29612427E-07    1.03036398E-06   -6.94022000E-02    6.44569196E-02    2.19899761E-11    1.12737433E-01    1.12737433E-01   
                   9.00000000E+01    1.74000000E+02    8.72397581E-07    1.01481379E-06   -5.07141042E-02    4.95697138E-02    2.25054219E-11    6.31972440E-02    6.31972440E-02   
                   9.00000000E+01    1.76000000E+02    9.06535752E-07    1.00336356E-06   -3.31552310E-02    3.36119442E-02    2.29781805E-11    2.80108440E-02    2.80108440E-02   
                   9.00000000E+01    1.78000000E+02    9.32547863E-07    9.97365118E-07   -1.63782153E-02    1.69716198E-02    2.34285239E-11    6.99044346E-03    6.99044348E-03   
                   9.00000000E+01    1.80000000E+02    9.50740655E-07    9.97772667E-07   -5.55356703E-07   -3.50727229E-07    2.38692943E-11    5.42151753E-12    2.92908118E-11   
                   9.00000000E+01    1.82000000E+02    9.61141280E-07    1.00516331E-06    1.63771095E-02   -1.69723252E-02    2.43051935E-11    6.99028918E-03    6.99028921E-03   
                   9.00000000E+01    1.84000000E+02    9.63462235E-07    1.01973862E-06    3.31541401E-02   -3.36126612E-02    2.47322048E-11    2.80105406E-02    2.80105406E-02   
                   9.00000000E+01    1.86000000E+02    9.57096660E-07    1.04130401E-06    5.07130387E-02   -4.95704491E-02    2.51371151E-11    6.31968021E-02    6.31968021E-02   
                   9.00000000E+01    1.88000000E+02    9.41145998E-07    1.06922635E-06    6.94011711E-02   -6.44576789E-02    2.54971758E-11    1.12736868E-01    1.12736868E-01   
                   9.00000000E+01    1.90000000E+02    9.14483986E-07    1.10237357E-06    8.95098243E-02   -7.78344106E-02    2.57800155E-11    1.76811400E-01    1.76811400E-01   
                   9.00000000E+01    1.92000000E+02    8.75862116E-07    1.13904454E-06    1.11249712E-01   -8.91987670E-02    2.59439874E-11    2.55510988E-01    2.55510989E-01   
                   9.00000000E+01    1.94000000E+02    8.24061746E-07    1.17690193E-06    1.34722615E-01   -9.79838706E-02    2.59391996E-11    3.48729626E-01    3.48729626E-01   
                   9.00000000E+01    1.96000000E+02    7.58096147E-07    1.21292560E-06    1.59889663E-01   -1.03564118E-01    2.57095162E-11    4.56036490E-01    4.56036490E-01   
                   9.00000000E+01    1.98000000E+02    6.77461392E-07    1.24340905E-06    1.86537823E-01   -1.05273311E-01    2.51958244E-11    5.76530371E-01    5.76530371E-01   
                   9.00000000E+01    2.00000000E+02    5.82427800E-07    1.26402484E-06    2.14247475E-01   -1.02436983E-01    2.43408203E-11    7.08684440E-01    7.08684440E-01   
                   9.00000000E+01    2.02000000E+02    4.74353279E-07    1.26998656E-06    2.42365391E-01   -9.44206381E-02    2.30954423E-11    8.50193382E-01    8.50193382E-01   
                   9.00000000E+01    2.04000000E+02    3.55987085E-07    1.25633196E-06    2.69988889E-01   -8.06943306E-02    2.14268782E-11    9.97839888E-01    9.97839888E-01   
                   9.00000000E+01    2.06000000E+02    2.31718281E-07    1.21834370E-06    2.95968102E-01   -6.09120198E-02    1.93277659E-11    1.14740252E+00    1.14740252E+00   
                   9.00000000E+01    2.08000000E+02    1.07709983E-07    1.15210860E-06    3.18933862E-01   -3.50013433E-02    1.68258131E-11    1.29363123E+00    1.29363123E+00   
                   9.00000000E+01    2.10000000E+02   -8.14836729E-09    1.05519230E-06    3.37358222E-01   -3.25600660E-03    1.39926184E-11    1.43031903E+00    1.43031903E+00   
                   9.00000000E+01    2.12000000E+02   -1.06538583E-07    9.27375958E-07    3.49652644E-01    3.35807519E-02    1.09500418E-11    1.55049709E+00    1.55049709E+00   
                   9.00000000E+01    2.14000000E+02   -1.77315908E-07    7.71365636E-07    3.54305096E-01    7.42566238E-02    7.87215105E-12    1.64677445E+00    1.64677445E+00   
                   9.00000000E+01    2.16000000E+02   -2.10440112E-07    5.93351569E-07    3.50051519E-01    1.16991948E-01    4.98069513E-12    1.71183099E+00    1.71183099E+00   
                   9.00000000E+01    2.18000000E+02   -1.97210525E-07    4.03269112E-07    3.36069635E-01    1.59520165E-01    2.53234947E-12    1.73905353E+00    1.73905353E+00   
                   9.00000000E+01    2.20000000E+02   -1.31713690E-07    2.14608055E-07    3.12174621E-01    1.99201450E-01    7.96772154E-13    1.72327933E+00    1.72327933E+00   
                   9.00000000E+01    2.22000000E+02   -1.23164432E-08    4.36410593E-08    2.78988165E-01    2.33216888E-01    2.58394341E-14    1.66158223E+00    1.66158223E+00   
                   9.00000000E+01    2.24000000E+02    1.57035047E-07   -9.19963000E-08    2.38046709E-01    2.58839249E-01    4.16239982E-13    1.55400756E+00    1.55400756E+00   
                   9.00000000E+01    2.26000000E+02    3.65999778E-07   -1.75340493E-07    1.91813527E-01    2.73761533E-01    2.06968282E-12    1.40413868E+00    1.40413868E+00   
                   9.00000000E+01    2.28000000E+02    5.97806045E-07   -1.92583896E-07    1.43564748E-01    2.76447777E-01    4.95693840E-12    1.21936785E+00    1.21936785E+00   
                   9.00000000E+01    2.30000000E+02    8.30235433E-07   -1.35695983E-07    9.71329408E-02    2.66455294E-01    8.89327419E-12    1.01075380E+00    1.01075380E+00   
                   9.00000000E+01    2.32000000E+02    1.03773780E-06   -4.74235387E-09    5.65132832E-02    2.44667307E-01    1.35330038E-11    7.92383085E-01    7.92383085E-01   
                   9.00000000E+01    2.34000000E+02    1.19459063E-06    1.90610609E-07    2.53647320E-02    2.13374232E-01    1.83893651E-11    5.80213617E-01    5.80213617E-01   
                   9.00000000E+01    2.36000000E+02    1.27877422E-06    4.30897628E-07    6.46757949E-03    1.76153858E-01    2.28825600E-11    3.90462411E-01    3.90462411E-01   
                   9.00000000E+01    2.38000000E+02    1.27599296E-06    6.88316251E-07    1.22324046E-03    1.37526869E-01    2.64137231E-11    2.37694611E-01    2.37694611E-01   
                   9.00000000E+01    2.40000000E+02    1.18309389E-06    9.29940646E-07    9.29483030E-03    1.02402677E-01    2.84565559E-11    1.32860492E-01    1.32860492E-01   
                   9.00000000E+01    2.42000000E+02    1.01007962E-06    1.12242551E-06    2.84816805E-02    7.53759636E-02    2.86525800E-11    8.15902025E-02    8.15902025E-02   
                   9.00000000E+01    2.44000000E+02    7.80033972E-07    1.23755388E-06    5.48936562E-02    5.99776935E-02    2.68919402E-11    8.30717172E-02    8.30717172E-02   
                   9.00000000E+01    2.46000000E+02    5.26590923E-07    1.25765846E-06    8.34428732E-02    5.80146745E-02    2.33609181E-11    1.29790698E-01    1.29790698E-01   
                   9.00000000E+01    2.48000000E+02    2.89048465E-07    1.17978036E-06    1.08607719E-01    6.91386078E-02    1.85408090E-11    2.08297441E-01    2.08297441E-01   
                   9.00000000E+01    2.50000000E+02    1.05775190E-07    1.01750150E-06    1.25358948E-01    9.07618440E-02    1.31506779E-11    3.00996976E-01    3.00996976E-01   
                   9.00000000E+01    2.52000000E+02    7.05315241E-09    7.99730886E-07    1.30085462E-01    1.18382220E-01    8.03769238E-12    3.88760495E-01    3.88760495E-01   
                   9.00000000E+01    2.54000000E+02    8.80727156E-09    5.66305441E-07    1.21333525E-01    1.46300733E-01    4.03103308E-12    4.53969298E-01    4.53969298E-01   
                   9.00000000E+01    2.56000000E+02    1.08674352E-07    3.60976209E-07    1.00188634E-01    1.68628593E-01    1.78585641E-12    4.83470561E-01    4.83470561E-01   
                   9.00000000E+01    2.58000000E+02    2.85511692E-07    2.23025965E-07    7.01864806E-02    1.80404533E-01    1.64943048E-12    4.70886257E-01    4.70886257E-01   
                   9.00000000E+01    2.60000000E+02    5.02774516E-07    1.79224000E-07    3.67306375E-02    1.78599664E-01    3.58020242E-12    4.17793869E-01    4.17793869E-01   
                   9.00000000E+01    2.62000000E+02    7.15335132E-07    2.37917590E-07    6.10127367E-03    1.62790662E-01    7.14158316E-12    3.33486658E-01    3.33486658E-01   
                   9.00000000E+01    2.64000000E+02    8.78476505E-07    3.86719372E-07   -1.57630446E-02    1.35337315E-01    1.15770560E-11    2.33290427E-01    2.33290427E-01   
                   9.00000000E+01    2.66000000E+02    9.57189883E-07    5.94518925E-07   -2.44650273E-02    1.00998954E-01    1.59550838E-11    1.35708337E-01    1.35708337E-01   
                   9.00000000E+01    2.68000000E+02    9.33718657E-07    8.17581048E-07   -1.80739257E-02    6.60453264E-02    1.93555949E-11    5.89193378E-02    5.89193378E-02   
                   9.00000000E+01    2.70000000E+02    8.11598069E-07    1.00852644E-06    2.43055292E-03    3.70326537E-02    2.10589376E-11    1.73079767E-02    1.73079767E-02   
                   9.00000000E+01    2.72000000E+02    6.15192151E-07    1.12627309E-06    3.33030215E-02    1.94962042E-02    2.06962150E-11    1.87137539E-02    1.87137540E-02   
                   9.00000000E+01    2.74000000E+02    3.84750713E-07    1.14474466E-06    6.87453064E-02    1.68352873E-02    1.83277178E-11    6.29492739E-02    6.29492739E-02   
                   9.00000000E+01    2.76000000E+02    1.68046184E-07    1.05840814E-06    1.02041197E-01    2.96276694E-02    1.44320659E-11    1.41876897E-01    1.41876897E-01   
                   9.00000000E+01    2.78000000E+02    1.04382845E-08    8.83429447E-07    1.26873972E-01    5.55164840E-02    9.80876283E-12    2.41011487E-01    2.41011487E-01   
                   9.00000000E+01    2.80000000E+02   -5.44455435E-08    6.54248345E-07    1.38550120E-01    8.96865269E-02    5.41617126E-12    3.42305532E-01    3.42305532E-01   
                   9.00000000E+01    2.82000000E+02   -1.14133717E-08    4.16414967E-07    1.34878783E-01    1.25819102E-01    2.18066353E-12    4.27542266E-01    4.27542266E-01   
                   9.00000000E+01    2.84000000E+02    1.33551761E-07    2.17339111E-07    1.16538174E-01    1.57315756E-01    8.17723418E-13    4.81661358E-01    4.81661358E-01   
                   9.00000000E+01    2.86000000E+02    3.54925285E-07    9.69910218E-08    8.68760900E-02    1.78533444E-01    1.70122540E-12    4.95387009E-01    4.95387009E-01   
                   9.00000000E+01    2.88000000E+02    6.13077676E-07    8.04873348E-08    5.12127715E-02    1.85785299E-01    4.80465690E-12    4.66701500E-01    4.66701500E-01   
                   9.00000000E+01    2.90000000E+02    8.62163782E-07    1.73957740E-07    1.58124400E-02    1.77925588E-01    9.72118952E-12    4.00962074E-01    4.00962074E-01   
                   9.00000000E+01    2.92000000E+02    1.05870167E-06    3.64280473E-07   -1.32556269E-02    1.56435744E-01    1.57525676E-11    3.09734064E-01    3.09734064E-01   
                   9.00000000E+01    2.94000000E+02    1.16909457E-06    6.22413465E-07   -3.11428669E-02    1.25035298E-01    2.20436839E-11    2.08648297E-01    2.08648297E-01   
                   9.00000000E+01    2.96000000E+02    1.17474532E-06    9.09338316E-07   -3.49546578E-02    8.89324731E-02    2.77330089E-11    1.14741179E-01    1.14741179E-01   
                   9.00000000E+01    2.98000000E+02    1.07405180E-06    1.18321990E-06   -2.40875970E-02    5.38861658E-02    3.20894413E-11    4.37803705E-02    4.37803706E-02   
                   9.00000000E+01    3.00000000E+02    8.81276890E-07    1.40631911E-06   -1.54731666E-04    2.52661026E-02    3.46125901E-11    8.02236952E-03    8.02236956E-03   
                   9.00000000E+01    3.02000000E+02    6.22893014E-07    1.55044348E-06    3.34388706E-02    7.27391681E-03    3.50836818E-11    1.47160736E-02    1.47160737E-02   
                   9.00000000E+01    3.04000000E+02    3.32391913E-07    1.60017709E-06    7.21531395E-02    2.43570069E-03    3.35654180E-11    6.54960263E-02    6.54960264E-02   
                   9.00000000E+01    3.06000000E+02    4.46784192E-08    1.55366371E-06    1.11061955E-01    1.14116031E-02    3.03586812E-11    1.56639590E-01    1.56639590E-01   
                   9.00000000E+01    3.08000000E+02   -2.08946737E-07    1.42120002E-06    1.45560165E-01    3.31055815E-02    2.59303067E-11    2.80025749E-01    2.80025749E-01   
                   9.00000000E+01    3.10000000E+02   -4.04495441E-07    1.22223860E-06    1.71924938E-01    6.50103556E-02    2.08285551E-11    4.24548931E-01    4.24548931E-01   
                   9.00000000E+01    3.12000000E+02   -5.27336642E-07    9.81562432E-07    1.87670740E-01    1.03695416E-01    1.56017616E-11    5.77714331E-01    5.77714331E-01   
                   9.00000000E+01    3.14000000E+02   -5.72574975E-07    7.25380513E-07    1.91682271E-01    1.45340437E-01    1.07319191E-11    7.27164793E-01    7.27164793E-01   
                   9.00000000E+01    3.16000000E+02   -5.44038183E-07    4.77949087E-07    1.84147916E-01    1.86228928E-01    6.58996653E-12    8.61948327E-01    8.61948327E-01   
                   9.00000000E+01    3.18000000E+02   -4.52312520E-07    2.59104964E-07    1.66342247E-01    2.23140985E-01    3.41455933E-12    9.73411706E-01    9.73411706E-01   
                   9.00000000E+01    3.20000000E+02   -3.12314598E-07    8.28642157E-08    1.40318117E-01    2.53612618E-01    1.31201563E-12    1.05568237E+00    1.05568237E+00   
                   9.00000000E+01    3.22000000E+02   -1.40842641E-07   -4.29613146E-08    1.08568263E-01    2.76056051E-01    2.72468119E-13    1.10576535E+00    1.10576535E+00   