##File Type: Far field
##File Format: 5
##Source: Thin_wire_XY_rad_theta450.0004
##Date: 2020-09-16 11:26:48
** File exported by POSTFEKO version 2018-319328 (x64)

#Configuration Name: StandardConfiguration1
#Request Name: FarField1
#Frequency: 3.00000000E+08
#Coordinate System: Spherical
#No. of Theta Samples: 1
#No. of Phi Samples: 181
#Result Type: RCS
#Incident Wave Direction: (4.50000000E+01, 0.00000000E+00)
#No. of Header Lines: 1
#                 "Theta"           "Phi"             "Re(Etheta)"      "Im(Etheta)"      "Re(Ephi)"        "Im(Ephi)"        "RCS(Theta)"      "RCS(Phi)"        "RCS(Total)"      
                   9.00000000E+01    0.00000000E+00   -4.07643416E-17    1.01018543E-17    0.00000000E+00    0.00000000E+00    2.21643006E-32    0.00000000E+00    2.21643006E-32   
                   9.00000000E+01    2.00000000E+00   -4.07157528E-17    1.02488624E-17    2.32201712E-02   -5.84492053E-03    2.21521452E-32    7.20479597E-03    7.20479597E-03   
                   9.00000000E+01    4.00000000E+00   -4.05656074E-17    1.06880270E-17    4.63255790E-02   -1.22056361E-02    2.21143295E-32    2.88402833E-02    2.88402833E-02   
                   9.00000000E+01    6.00000000E+00   -4.03009035E-17    1.14135274E-17    6.91757924E-02   -1.95911192E-02    2.20468356E-32    6.49568542E-02    6.49568542E-02   
                   9.00000000E+01    8.00000000E+00   -3.99004452E-17    1.24148738E-17    9.15797416E-02   -2.84946929E-02    2.19430774E-32    1.15595487E-01    1.15595487E-01   
                   9.00000000E+01    1.00000000E+01   -3.93356202E-17    1.36757786E-17    1.13272352E-01   -3.93812934E-02    2.17940820E-32    1.80723409E-01    1.80723409E-01   
                   9.00000000E+01    1.20000000E+01   -3.85716097E-17    1.51726914E-17    1.33894095E-01   -5.26691471E-02    2.15887689E-32    2.60144829E-01    2.60144829E-01   
                   9.00000000E+01    1.40000000E+01   -3.75691353E-17    1.68731259E-17    1.52975331E-01   -6.87045896E-02    2.13143529E-32    3.53388616E-01    3.53388616E-01   
                   9.00000000E+01    1.60000000E+01   -3.62868468E-17    1.87339610E-17    1.69927948E-01   -8.77294071E-02    2.09568928E-32    4.59576757E-01    4.59576757E-01   
                   9.00000000E+01    1.80000000E+01   -3.46844304E-17    2.06999585E-17    1.84047427E-01   -1.09841045E-01    2.05020085E-32    5.77280349E-01    5.77280349E-01   
                   9.00000000E+01    2.00000000E+01   -3.27264669E-17    2.27027974E-17    1.94528902E-01   -1.34947358E-01    1.99357760E-32    7.04373762E-01    7.04373762E-01   
                   9.00000000E+01    2.20000000E+01   -3.03869761E-17    2.46609744E-17    2.00500835E-01   -1.62719249E-01    1.92457984E-32    8.37902204E-01    8.37902204E-01   
                   9.00000000E+01    2.40000000E+01   -2.76544662E-17    2.64809441E-17    2.01079391E-01   -1.92546552E-01    1.84224237E-32    9.73982894E-01    9.73982894E-01   
                   9.00000000E+01    2.60000000E+01   -2.45371489E-17    2.80598539E-17    1.95445204E-01   -2.23504527E-01    1.74600556E-32    1.10776454E+00    1.10776454E+00   
                   9.00000000E+01    2.80000000E+01   -2.10678105E-17    2.92901475E-17    1.82941785E-01   -2.54340234E-01    1.63584662E-32    1.23347286E+00    1.23347286E+00   
                   9.00000000E+01    3.00000000E+01   -1.73076654E-17    3.00661534E-17    1.63191302E-01   -2.83489113E-01    1.51239897E-32    1.34456997E+00    1.34456997E+00   
                   9.00000000E+01    3.20000000E+01   -1.33483919E-17    3.02925323E-17    1.36218884E-01   -3.09131989E-01    1.37704435E-32    1.43405123E+00    1.43405123E+00   
                   9.00000000E+01    3.40000000E+01   -9.31151126E-18    2.98941324E-17    1.02571511E-01   -3.29300610E-01    1.23196097E-32    1.49489302E+00    1.49489302E+00   
                   9.00000000E+01    3.60000000E+01   -5.34435487E-18    2.88264245E-17    6.34125873E-02   -3.42035325E-01    1.08011082E-32    1.52064796E+00    1.52064796E+00   
                   9.00000000E+01    3.80000000E+01   -1.61212138E-18    2.70853107E-17    2.05696412E-02   -3.45591300E-01    9.25152533E-33    1.50616066E+00    1.50616066E+00   
                   9.00000000E+01    4.00000000E+01    1.71403714E-18    2.47147910E-17   -2.34883712E-02   -3.38680051E-01    7.71272076E-33    1.44834811E+00    1.44834811E+00   
                   9.00000000E+01    4.20000000E+01    4.47234709E-18    2.18108249E-17   -6.57645846E-02   -3.20721942E-01    6.22932550E-33    1.34695841E+00    1.34695841E+00   
                   9.00000000E+01    4.40000000E+01    6.52788755E-18    1.85198397E-17   -1.02950626E-01   -2.92074439E-01    4.84556461E-33    1.20519423E+00    1.20519423E+00   
                   9.00000000E+01    4.60000000E+01    7.79020403E-18    1.50307690E-17   -1.31743984E-01   -2.54192751E-01    3.60166377E-33    1.03007083E+00    1.03007083E+00   
                   9.00000000E+01    4.80000000E+01    8.22848361E-18    1.15602999E-17   -1.49245593E-01   -2.09677006E-01    2.53021957E-33    8.32379975E-01    8.32379975E-01   
                   9.00000000E+01    5.00000000E+01    7.88146518E-18    8.33209469E-18   -1.53395484E-01   -1.62166002E-01    1.65299667E-33    6.26156950E-01    6.26156950E-01   
                   9.00000000E+01    5.20000000E+01    6.85949582E-18    5.55200446E-18   -1.43384269E-01   -1.16053733E-01    9.78636728E-34    4.27602396E-01    4.27602396E-01   
                   9.00000000E+01    5.40000000E+01    5.33696663E-18    3.38247216E-18   -1.19964456E-01   -7.60312855E-02    5.01703935E-34    2.53491683E-01    2.53491683E-01   
                   9.00000000E+01    5.60000000E+01    3.53475042E-18    1.92015259E-18   -8.55835823E-02   -4.64908459E-02    2.03342054E-34    1.19203942E-01    1.19203942E-01   
                   9.00000000E+01    5.80000000E+01    1.69406023E-18    1.18096290E-18   -4.42750200E-02   -3.08649923E-02    5.35894561E-35    3.66048969E-02    3.66048969E-02   
                   9.00000000E+01    6.00000000E+01    4.50398157E-20    1.09611892E-18   -1.27402038E-03   -3.10054075E-02    1.51236932E-35    1.21008924E-02    1.21008924E-02   
                   9.00000000E+01    6.20000000E+01   -1.22503369E-18    1.52115704E-18    3.76264126E-02   -4.67217211E-02    4.79360079E-35    4.52221726E-02    4.52221726E-02   
                   9.00000000E+01    6.40000000E+01   -1.99825486E-18    2.25765787E-18    6.69095712E-02   -7.55954225E-02    1.14228831E-34    1.28070903E-01    1.28070903E-01   
                   9.00000000E+01    6.60000000E+01   -2.24194165E-18    3.08477431E-18    8.22356844E-02   -1.13151262E-01    1.82741857E-34    2.45872550E-01    2.45872550E-01   
                   9.00000000E+01    6.80000000E+01   -2.01004879E-18    3.79529620E-18    8.12486560E-02   -1.53410563E-01    2.31781295E-34    3.78701965E-01    3.78701965E-01   
                   9.00000000E+01    7.00000000E+01   -1.42902153E-18    4.22948247E-18    6.41197835E-02   -1.89775658E-01    2.50455614E-34    5.04240033E-01    5.04240033E-01   
                   9.00000000E+01    7.20000000E+01   -6.70230217E-19    4.29977382E-18    3.36873702E-02   -2.16116894E-01    2.37972671E-34    6.01192142E-01    6.01192142E-01   
                   9.00000000E+01    7.40000000E+01    8.57520198E-20    4.00099426E-18   -4.88390338E-03   -2.27871827E-01    2.01254301E-34    6.52815689E-01    6.52815689E-01   
                   9.00000000E+01    7.60000000E+01    6.85599382E-19    3.40358560E-18   -4.49074612E-02   -2.22938340E-01    1.51480579E-34    6.49909861E-01    6.49909861E-01   
                   9.00000000E+01    7.80000000E+01    1.03244128E-18    2.63120376E-18   -7.93249833E-02   -2.02161806E-01    1.00394849E-34    5.92653269E-01    5.92653269E-01   
                   9.00000000E+01    8.00000000E+01    1.10124970E-18    1.82773717E-18   -1.01996713E-01   -1.69283300E-01    5.72193859E-35    4.90844510E-01    4.90844510E-01   
                   9.00000000E+01    8.20000000E+01    9.36956462E-19    1.12149636E-18   -1.08876970E-01   -1.30321024E-01    2.68372626E-35    3.62386029E-01    3.62386029E-01   
                   9.00000000E+01    8.40000000E+01    6.36015435E-19    5.95173674E-19   -9.88249453E-02   -9.24788967E-02    9.53470022E-36    2.30199776E-01    2.30199776E-01   
                   9.00000000E+01    8.60000000E+01    3.16271342E-19    2.68837228E-19   -7.38644140E-02   -6.27862903E-02    2.16519843E-36    1.18099629E-01    1.18099629E-01   
                   9.00000000E+01    8.80000000E+01    8.30024308E-20    9.99494828E-20   -3.88173738E-02   -4.67429255E-02    2.12111573E-37    4.63911397E-02    4.63911397E-02   
                   9.00000000E+01    9.00000000E+01    1.39287056E-36    1.77170489E-34   -3.71491641E-04   -4.72530311E-02    3.94474991E-67    2.80605417E-02    2.80605417E-02   
                   9.00000000E+01    9.20000000E+01    7.31980978E-20   -1.37015236E-19    3.42322255E-02   -6.40772999E-02    3.03240805E-37    6.63221075E-02    6.63221075E-02   
                   9.00000000E+01    9.40000000E+01    2.50990958E-19   -4.02149401E-19    5.86183367E-02   -9.39210288E-02    2.82392236E-36    1.54029385E-01    1.54029385E-01   
                   9.00000000E+01    9.60000000E+01    4.40879085E-19   -8.43973031E-19    6.85043932E-02   -1.31137680E-01    1.13934865E-35    2.75077137E-01    2.75077137E-01   
                   9.00000000E+01    9.80000000E+01    5.37702823E-19   -1.45342862E-18    6.24825768E-02   -1.68892484E-01    3.01791329E-35    4.07511611E-01    4.07511611E-01   
                   9.00000000E+01    1.00000000E+02    4.55659813E-19   -2.16513917E-18    4.22027839E-02   -2.00533157E-01    6.15180831E-35    5.27719984E-01    5.27719984E-01   
                   9.00000000E+01    1.02000000E+02    1.55381589E-19   -2.87478973E-18    1.19383467E-02   -2.20877111E-01    1.04157110E-34    6.14862739E-01    6.14862739E-01   
                   9.00000000E+01    1.04000000E+02   -3.41231117E-19   -3.46794380E-18   -2.23509874E-02   -2.27153868E-01    1.52594354E-34    6.54688385E-01    6.54688385E-01   
                   9.00000000E+01    1.06000000E+02   -9.52399845E-19   -3.85273394E-18   -5.42427903E-02   -2.19427838E-01    1.97928182E-34    6.42026637E-01    6.42026637E-01   
                   9.00000000E+01    1.08000000E+02   -1.55382473E-18   -3.98800660E-18   -7.80989392E-02   -2.00446729E-01    2.30197914E-34    5.81550716E-01    5.81550716E-01   
                   9.00000000E+01    1.10000000E+02   -2.00772719E-18   -3.89983391E-18   -9.00861393E-02   -1.74984422E-01    2.41772861E-34    4.86759124E-01    4.86759124E-01   
                   9.00000000E+01    1.12000000E+02   -2.19654428E-18   -3.68236048E-18   -8.87870344E-02   -1.48845562E-01    2.31027515E-34    3.77470383E-01    3.77470383E-01   
                   9.00000000E+01    1.14000000E+02   -2.05336506E-18   -3.48283856E-18   -7.53185886E-02   -1.27752483E-01    2.05415832E-34    2.76379562E-01    2.76379562E-01   
                   9.00000000E+01    1.16000000E+02   -1.58228261E-18   -3.47438429E-18   -5.29811555E-02   -1.16336293E-01    1.83154405E-34    2.05348770E-01    2.05348770E-01   
                   9.00000000E+01    1.18000000E+02   -8.64445657E-19   -3.82257671E-18   -2.65510974E-02   -1.17408892E-01    1.93011398E-34    1.82084306E-01    1.82084306E-01   
                   9.00000000E+01    1.20000000E+02   -4.89570361E-20   -4.65300072E-18   -1.38482498E-03   -1.31617274E-01    2.72097266E-34    2.17712679E-01    2.17712679E-01   
                   9.00000000E+01    1.22000000E+02    6.68984320E-19   -6.02614594E-18    1.74842037E-02   -1.57496013E-01    4.61964602E-34    3.15550257E-01    3.15550257E-01   
                   9.00000000E+01    1.24000000E+02    1.07789940E-18   -7.92406787E-18    2.60981627E-02   -1.91857991E-01    8.03653564E-34    4.71120810E-01    4.71120810E-01   
                   9.00000000E+01    1.26000000E+02    9.81877944E-19   -1.02505098E-17    2.20706746E-02   -2.30411191E-01    1.33250069E-33    6.73261296E-01    6.73261296E-01   
                   9.00000000E+01    1.28000000E+02    2.28754544E-19   -1.28434633E-17    4.78166382E-03   -2.68467339E-01    2.07353758E-33    9.06004866E-01    9.06004866E-01   
                   9.00000000E+01    1.30000000E+02   -1.26977547E-18   -1.54969885E-17   -2.47134028E-02   -3.01614991E-01    3.03815862E-33    1.15085782E+00    1.15085782E+00   
                   9.00000000E+01    1.32000000E+02   -3.52851855E-18   -1.79878822E-17   -6.39991362E-02   -3.26258430E-01    4.22248085E-33    1.38909229E+00    1.38909229E+00   
                   9.00000000E+01    1.34000000E+02   -6.48992996E-18   -2.01025604E-17   -1.09754408E-01   -3.39964318E-01    5.60751827E-33    1.60374243E+00    1.60374243E+00   
                   9.00000000E+01    1.36000000E+02   -1.00345361E-17   -2.16601725E-17   -1.58253610E-01   -3.41600296E-01    7.16100897E-33    1.78109413E+00    1.78109413E+00   
                   9.00000000E+01    1.38000000E+02   -1.39978936E-17   -2.25291987E-17   -2.05835022E-01   -3.31285423E-01    8.84051488E-33    1.91157227E+00    1.91157227E+00   
                   9.00000000E+01    1.40000000E+02   -1.81908142E-17   -2.26362472E-17   -2.49278494E-01   -3.10196649E-01    1.05972883E-32    1.99003217E+00    1.99003217E+00   
                   9.00000000E+01    1.42000000E+02   -2.24196931E-17   -2.19671554E-17   -2.86060993E-01   -2.80286900E-01    1.23803702E-32    2.01554077E+00    2.01554077E+00   
                   9.00000000E+01    1.44000000E+02   -2.65043732E-17   -2.05615804E-17   -3.14483398E-01   -2.43970141E-01    1.41404391E-32    1.99077998E+00    1.99077998E+00   
                   9.00000000E+01    1.46000000E+02   -3.02918357E-17   -1.85029231E-17   -3.33681535E-01   -2.03820061E-01    1.58330423E-32    1.92122193E+00    1.92122193E+00   
                   9.00000000E+01    1.48000000E+02   -3.36649267E-17   -1.59056653E-17   -3.43546905E-01   -1.62315580E-01    1.74209792E-32    1.81421728E+00    1.81421728E+00   
                   9.00000000E+01    1.50000000E+02   -3.65461476E-17   -1.29020725E-17   -3.44587977E-01   -1.21651648E-01    1.88757490E-32    1.67811310E+00    1.67811310E+00   
                   9.00000000E+01    1.52000000E+02   -3.88971462E-17   -9.62984601E-18   -3.37762357E-01   -8.36205174E-02    2.01780967E-32    1.52148339E+00    1.52148339E+00   
                   9.00000000E+01    1.54000000E+02   -4.07149097E-17   -6.22181375E-18   -3.24305560E-01   -4.95584740E-02    2.13177775E-32    1.35252021E+00    1.35252021E+00   
                   9.00000000E+01    1.56000000E+02   -4.20258012E-17   -2.79824311E-18   -3.05575326E-01   -2.03464069E-02    2.22927180E-32    1.17860312E+00    1.17860312E+00   
                   9.00000000E+01    1.58000000E+02   -4.28785263E-17    5.38087317E-19   -2.82923193E-01    3.55043410E-03    2.31077656E-32    1.00604024E+00    1.00604024E+00   
                   9.00000000E+01    1.60000000E+02   -4.33369466E-17    3.70425698E-18   -2.57598495E-01    2.20184184E-02    2.37732165E-32    8.39958771E-01    8.39958771E-01   
                   9.00000000E+01    1.62000000E+02   -4.34734186E-17    6.63743046E-18   -2.30684798E-01    3.52204716E-02    2.43032805E-32    6.84313746E-01    6.84313746E-01   
                   9.00000000E+01    1.64000000E+02   -4.33630896E-17    9.29346307E-18   -2.03065339E-01    4.35204282E-02    2.47146078E-32    5.41982029E-01    5.41982029E-01   
                   9.00000000E+01    1.66000000E+02   -4.30793535E-17    1.16444192E-17   -1.75412032E-01    4.74141572E-02    2.50249619E-32    4.14909931E-01    4.14909931E-01   
                   9.00000000E+01    1.68000000E+02   -4.26904940E-17    1.36754885E-17   -1.48192028E-01    4.74718884E-02    2.52520874E-32    3.04287845E-01    3.04287845E-01   
                   9.00000000E+01    1.70000000E+02   -4.22574106E-17    1.53816996E-17   -1.21686051E-01    4.42937285E-02    2.54127882E-32    2.10730864E-01    2.10730864E-01   
                   9.00000000E+01    1.72000000E+02   -4.18322450E-17    1.67647359E-17   -9.60136203E-02    3.84785226E-02    2.55222120E-32    1.34450263E-01    1.34450263E-01   
                   9.00000000E+01    1.74000000E+02   -4.14576948E-17    1.78300620E-17   -7.11614044E-02    3.06049880E-02    2.55933184E-32    7.54058988E-02    7.54058988E-02   
                   9.00000000E+01    1.76000000E+02   -4.11667918E-17    1.85844913E-17   -4.70121264E-02    2.12233312E-02    2.56365027E-32    3.34337064E-02    3.34337064E-02   
                   9.00000000E+01    1.78000000E+02   -4.09829514E-17    1.90342668E-17   -2.33725544E-02    1.08552318E-02    2.56593428E-32    8.34548202E-03    8.34548202E-03   
                   9.00000000E+01    1.80000000E+02   -4.09201269E-17    1.91836842E-17   -8.18402538E-17    3.83673685E-17    2.56664416E-32    1.02665766E-31    1.28332208E-31   
                   9.00000000E+01    1.82000000E+02   -4.09829510E-17    1.90342672E-17    2.33725542E-02   -1.08552320E-02    2.56593425E-32    8.34548193E-03    8.34548193E-03   
                   9.00000000E+01    1.84000000E+02   -4.11667910E-17    1.85844920E-17    4.70121255E-02   -2.12233320E-02    2.56365022E-32    3.34337057E-02    3.34337057E-02   
                   9.00000000E+01    1.86000000E+02   -4.14576937E-17    1.78300629E-17    7.11614025E-02   -3.06049896E-02    2.55933177E-32    7.54058966E-02    7.54058966E-02   
                   9.00000000E+01    1.88000000E+02   -4.18322438E-17    1.67647369E-17    9.60136174E-02   -3.84785248E-02    2.55222110E-32    1.34450258E-01    1.34450258E-01   
                   9.00000000E+01    1.90000000E+02   -4.22574093E-17    1.53817003E-17    1.21686047E-01   -4.42937306E-02    2.54127872E-32    2.10730855E-01    2.10730855E-01   
                   9.00000000E+01    1.92000000E+02   -4.26904929E-17    1.36754888E-17    1.48192024E-01   -4.74718895E-02    2.52520863E-32    3.04287832E-01    3.04287832E-01   
                   9.00000000E+01    1.94000000E+02   -4.30793525E-17    1.16444189E-17    1.75412028E-01   -4.74141557E-02    2.50249608E-32    4.14909912E-01    4.14909912E-01   
                   9.00000000E+01    1.96000000E+02   -4.33630889E-17    9.29346182E-18    2.03065335E-01   -4.35204223E-02    2.47146067E-32    5.41982005E-01    5.41982005E-01   
                   9.00000000E+01    1.98000000E+02   -4.34734181E-17    6.63742817E-18    2.30684795E-01   -3.52204594E-02    2.43032795E-32    6.84313719E-01    6.84313719E-01   
                   9.00000000E+01    2.00000000E+02   -4.33369461E-17    3.70425361E-18    2.57598492E-01   -2.20183983E-02    2.37732157E-32    8.39958742E-01    8.39958742E-01   
                   9.00000000E+01    2.02000000E+02   -4.28785258E-17    5.38082888E-19    2.82923190E-01   -3.55040488E-03    2.31077649E-32    1.00604022E+00    1.00604022E+00   
                   9.00000000E+01    2.04000000E+02   -4.20258004E-17   -2.79824844E-18    3.05575320E-01    2.03464456E-02    2.22927175E-32    1.17860309E+00    1.17860309E+00   
                   9.00000000E+01    2.06000000E+02   -4.07149084E-17   -6.22181972E-18    3.24305550E-01    4.95585215E-02    2.13177772E-32    1.35252019E+00    1.35252019E+00   
                   9.00000000E+01    2.08000000E+02   -3.88971444E-17   -9.62985229E-18    3.37762342E-01    8.36205720E-02    2.01780965E-32    1.52148337E+00    1.52148337E+00   
                   9.00000000E+01    2.10000000E+02   -3.65461454E-17   -1.29020787E-17    3.44587956E-01    1.21651706E-01    1.88757490E-32    1.67811309E+00    1.67811309E+00   
                   9.00000000E+01    2.12000000E+02   -3.36649239E-17   -1.59056711E-17    3.43546877E-01    1.62315639E-01    1.74209792E-32    1.81421728E+00    1.81421728E+00   
                   9.00000000E+01    2.14000000E+02   -3.02918326E-17   -1.85029282E-17    3.33681501E-01    2.03820117E-01    1.58330424E-32    1.92122194E+00    1.92122194E+00   
                   9.00000000E+01    2.16000000E+02   -2.65043700E-17   -2.05615846E-17    3.14483360E-01    2.43970191E-01    1.41404391E-32    1.99077998E+00    1.99077998E+00   
                   9.00000000E+01    2.18000000E+02   -2.24196899E-17   -2.19671585E-17    2.86060952E-01    2.80286940E-01    1.23803701E-32    2.01554076E+00    2.01554076E+00   
                   9.00000000E+01    2.20000000E+02   -1.81908113E-17   -2.26362493E-17    2.49278454E-01    3.10196678E-01    1.05972882E-32    1.99003215E+00    1.99003215E+00   
                   9.00000000E+01    2.22000000E+02   -1.39978911E-17   -2.25292000E-17    2.05834985E-01    3.31285441E-01    8.84051470E-33    1.91157223E+00    1.91157223E+00   
                   9.00000000E+01    2.24000000E+02   -1.00345340E-17   -2.16601731E-17    1.58253577E-01    3.41600305E-01    7.16100874E-33    1.78109407E+00    1.78109407E+00   
                   9.00000000E+01    2.26000000E+02   -6.48992837E-18   -2.01025604E-17    1.09754381E-01    3.39964318E-01    5.60751801E-33    1.60374235E+00    1.60374235E+00   
                   9.00000000E+01    2.28000000E+02   -3.52851741E-18   -1.79878819E-17    6.39991155E-02    3.26258424E-01    4.22248059E-33    1.38909221E+00    1.38909221E+00   
                   9.00000000E+01    2.30000000E+02   -1.26977471E-18   -1.54969880E-17    2.47133880E-02    3.01614982E-01    3.03815841E-33    1.15085774E+00    1.15085774E+00   
                   9.00000000E+01    2.32000000E+02    2.28755007E-19   -1.28434628E-17   -4.78167350E-03    2.68467328E-01    2.07353742E-33    9.06004795E-01    9.06004795E-01   
                   9.00000000E+01    2.34000000E+02    9.81878201E-19   -1.02505094E-17   -2.20706804E-02    2.30411182E-01    1.33250059E-33    6.73261247E-01    6.73261247E-01   
                   9.00000000E+01    2.36000000E+02    1.07789954E-18   -7.92406767E-18   -2.60981663E-02    1.91857986E-01    8.03653530E-34    4.71120790E-01    4.71120790E-01   
                   9.00000000E+01    2.38000000E+02    6.68984459E-19   -6.02614603E-18   -1.74842074E-02    1.57496015E-01    4.61964617E-34    3.15550267E-01    3.15550267E-01   
                   9.00000000E+01    2.40000000E+02   -4.89567973E-20   -4.65300109E-18    1.38481822E-03    1.31617284E-01    2.72097310E-34    2.17712713E-01    2.17712713E-01   
                   9.00000000E+01    2.42000000E+02   -8.64445218E-19   -3.82257734E-18    2.65510840E-02    1.17408911E-01    1.93011449E-34    1.82084355E-01    1.82084355E-01   
                   9.00000000E+01    2.44000000E+02   -1.58228191E-18   -3.47438508E-18    5.29811318E-02    1.16336320E-01    1.83154446E-34    2.05348817E-01    2.05348817E-01   
                   9.00000000E+01    2.46000000E+02   -2.05336406E-18   -3.48283939E-18    7.53185523E-02    1.27752514E-01    2.05415853E-34    2.76379591E-01    2.76379591E-01   
                   9.00000000E+01    2.48000000E+02   -2.19654306E-18   -3.68236120E-18    8.87869850E-02    1.48845591E-01    2.31027514E-34    3.77470381E-01    3.77470381E-01   
                   9.00000000E+01    2.50000000E+02   -2.00772585E-18   -3.89983441E-18    9.00860792E-02    1.74984444E-01    2.41772842E-34    4.86759086E-01    4.86759086E-01   
                   9.00000000E+01    2.52000000E+02   -1.55382342E-18   -3.98800683E-18    7.80988730E-02    2.00446741E-01    2.30197885E-34    5.81550643E-01    5.81550643E-01   
                   9.00000000E+01    2.54000000E+02   -9.52398689E-19   -3.85273392E-18    5.42427244E-02    2.19427837E-01    1.97928152E-34    6.42026541E-01    6.42026541E-01   
                   9.00000000E+01    2.56000000E+02   -3.41230211E-19   -3.46794360E-18    2.23509280E-02    2.27153855E-01    1.52594329E-34    6.54688279E-01    6.54688279E-01   
                   9.00000000E+01    2.58000000E+02    1.55382218E-19   -2.87478947E-18   -1.19383950E-02    2.20877090E-01    1.04157093E-34    6.14862640E-01    6.14862640E-01   
                   9.00000000E+01    2.60000000E+02    4.55660197E-19   -2.16513892E-18   -4.22028195E-02    2.00533134E-01    6.15180739E-35    5.27719905E-01    5.27719905E-01   
                   9.00000000E+01    2.62000000E+02    5.37703030E-19   -1.45342844E-18   -6.24826009E-02    1.68892463E-01    3.01791290E-35    4.07511559E-01    4.07511559E-01   
                   9.00000000E+01    2.64000000E+02    4.40879187E-19   -8.43972927E-19   -6.85044091E-02    1.31137664E-01    1.13934854E-35    2.75077111E-01    2.75077111E-01   
                   9.00000000E+01    2.66000000E+02    2.50991007E-19   -4.02149358E-19   -5.86183481E-02    9.39210188E-02    2.82392224E-36    1.54029379E-01    1.54029379E-01   
                   9.00000000E+01    2.68000000E+02    7.31981199E-20   -1.37015227E-19   -3.42322358E-02    6.40772955E-02    3.03240813E-37    6.63221093E-02    6.63221093E-02   
                   9.00000000E+01    2.70000000E+02   -4.17848638E-36   -5.31511469E-34    3.71480502E-04    4.72530312E-02    3.55027492E-66    2.80605417E-02    2.80605417E-02   
                   9.00000000E+01    2.72000000E+02    8.30024029E-20    9.99494915E-20    3.88173608E-02    4.67429296E-02    2.12111536E-37    4.63911317E-02    4.63911317E-02   
                   9.00000000E+01    2.74000000E+02    3.16271274E-19    2.68837263E-19    7.38643981E-02    6.27862986E-02    2.16519813E-36    1.18099613E-01    1.18099613E-01   
                   9.00000000E+01    2.76000000E+02    6.36015304E-19    5.95173759E-19    9.88249250E-02    9.24789099E-02    9.53469940E-36    2.30199757E-01    2.30199757E-01   
                   9.00000000E+01    2.78000000E+02    9.36956228E-19    1.12149652E-18    1.08876943E-01    1.30321042E-01    2.68372615E-35    3.62386014E-01    3.62386014E-01   
                   9.00000000E+01    2.80000000E+02    1.10124930E-18    1.82773740E-18    1.01996676E-01    1.69283322E-01    5.72193856E-35    4.90844508E-01    4.90844508E-01   
                   9.00000000E+01    2.82000000E+02    1.03244065E-18    2.63120404E-18    7.93249348E-02    2.02161828E-01    1.00394851E-34    5.92653284E-01    5.92653284E-01   
                   9.00000000E+01    2.84000000E+02    6.85598473E-19    3.40358586E-18    4.49074016E-02    2.22938357E-01    1.51480586E-34    6.49909892E-01    6.49909892E-01   
                   9.00000000E+01    2.86000000E+02    8.57508377E-20    4.00099440E-18    4.88383606E-03    2.27871835E-01    2.01254314E-34    6.52815729E-01    6.52815729E-01   
                   9.00000000E+01    2.88000000E+02   -6.70231596E-19    4.29977375E-18   -3.36874395E-02    2.16116890E-01    2.37972686E-34    6.01192181E-01    6.01192181E-01   
                   9.00000000E+01    2.90000000E+02   -1.42902296E-18    4.22948212E-18   -6.41198478E-02    1.89775642E-01    2.50455629E-34    5.04240062E-01    5.04240062E-01   
                   9.00000000E+01    2.92000000E+02   -2.01005010E-18    3.79529559E-18   -8.12487089E-02    1.53410538E-01    2.31781303E-34    3.78701978E-01    3.78701978E-01   
                   9.00000000E+01    2.94000000E+02   -2.24194267E-18    3.08477353E-18   -8.22357218E-02    1.13151233E-01    1.82741853E-34    2.45872546E-01    2.45872546E-01   
                   9.00000000E+01    2.96000000E+02   -1.99825548E-18    2.25765708E-18   -6.69095920E-02    7.55953959E-02    1.14228817E-34    1.28070887E-01    1.28070887E-01   
                   9.00000000E+01    2.98000000E+02   -1.22503389E-18    1.52115641E-18   -3.76264186E-02    4.67217016E-02    4.79359896E-35    4.52221553E-02    4.52221553E-02   
                   9.00000000E+01    3.00000000E+02    4.50399850E-20    1.09611859E-18    1.27402517E-03    3.10053984E-02    1.51236845E-35    1.21008855E-02    1.21008855E-02   
                   9.00000000E+01    3.02000000E+02    1.69406063E-18    1.18096298E-18    4.42750305E-02    3.08649944E-02    5.35894756E-35    3.66049103E-02    3.66049103E-02   
                   9.00000000E+01    3.04000000E+02    3.53475089E-18    1.92015309E-18    8.55835937E-02    4.64908580E-02    2.03342120E-34    1.19203981E-01    1.19203981E-01   
                   9.00000000E+01    3.06000000E+02    5.33696700E-18    3.38247302E-18    1.19964465E-01    7.60313050E-02    5.01704059E-34    2.53491745E-01    2.53491745E-01   
                   9.00000000E+01    3.08000000E+02    6.85949595E-18    5.55200558E-18    1.43384271E-01    1.16053757E-01    9.78636908E-34    4.27602474E-01    4.27602474E-01   
                   9.00000000E+01    3.10000000E+02    7.88146495E-18    8.33209593E-18    1.53395480E-01    1.62166026E-01    1.65299688E-33    6.26157031E-01    6.26157031E-01   
                   9.00000000E+01    3.12000000E+02    8.22848292E-18    1.15603011E-17    1.49245580E-01    2.09677028E-01    2.53021977E-33    8.32380044E-01    8.32380044E-01   
                   9.00000000E+01    3.14000000E+02    7.79020279E-18    1.50307701E-17    1.31743963E-01    2.54192769E-01    3.60166392E-33    1.03007087E+00    1.03007087E+00   
                   9.00000000E+01    3.16000000E+02    6.52788571E-18    1.85198405E-17    1.02950597E-01    2.92074451E-01    4.84556465E-33    1.20519424E+00    1.20519424E+00   
                   9.00000000E+01    3.18000000E+02    4.47234461E-18    2.18108252E-17    6.57645482E-02    3.20721946E-01    6.22932537E-33    1.34695838E+00    1.34695838E+00   
                   9.00000000E+01    3.20000000E+02    1.71403403E-18    2.47147906E-17    2.34883286E-02    3.38680046E-01    7.71272041E-33    1.44834804E+00    1.44834804E+00   
                   9.00000000E+01    3.22000000E+02   -1.61212506E-18    2.70853097E-17   -2.05696881E-02    3.45591287E-01    9.25152478E-33    1.50616057E+00    1.50616057E+00   