##File Type: Far field
##File Format: 5
##Source: RWG_wire_XY_rad_theta450.3
##Date: 2020-09-16 10:50:29
** File exported by POSTFEKO version 2018-319328 (x64)

#Configuration Name: StandardConfiguration1
#Request Name: FarField1
#Frequency: 3.00000000E+08
#Coordinate System: Spherical
#No. of Theta Samples: 1
#No. of Phi Samples: 181
#Result Type: RCS
#Incident Wave Direction: (4.50000000E+01, 0.00000000E+00)
#No. of Header Lines: 1
#                 "Theta"           "Phi"             "Re(Etheta)"      "Im(Etheta)"      "Re(Ephi)"        "Im(Ephi)"        "RCS(Theta)"      "RCS(Phi)"        "RCS(Total)"      
                   9.00000000E+01    0.00000000E+00   -3.23722204E-01   -3.01000313E-01   -1.03948815E-04    5.33147507E-05    2.45543431E+00    1.71503548E-07    2.45543448E+00   
                   9.00000000E+01    2.00000000E+00   -3.24961679E-01   -2.99399851E-01    7.19143179E-03    5.33605446E-03    2.45346277E+00    1.00769938E-03    2.45447047E+00   
                   9.00000000E+01    4.00000000E+00   -3.28613400E-01   -2.94537161E-01    1.45464149E-02    1.04172441E-02    2.44716127E+00    4.02271088E-03    2.45118398E+00   
                   9.00000000E+01    6.00000000E+00   -3.34457691E-01   -2.86270360E-01    2.20059064E-02    1.50902858E-02    2.43552179E+00    8.94696234E-03    2.44446876E+00   
                   9.00000000E+01    8.00000000E+00   -3.42119645E-01   -2.74382820E-01    2.95884277E-02    1.91416125E-02    2.41691247E+00    1.56058789E-02    2.43251835E+00   
                   9.00000000E+01    1.00000000E+01   -3.51058515E-01   -2.58613520E-01    3.72723569E-02    2.23507394E-02    2.38915650E+00    2.37351615E-02    2.41289167E+00   
                   9.00000000E+01    1.20000000E+01   -3.60557508E-01   -2.38700173E-01    4.49820501E-02    2.44944949E-02    2.34965356E+00    3.29661782E-02    2.38261973E+00   
                   9.00000000E+01    1.40000000E+01   -3.69718548E-01   -2.14434974E-01    5.25746699E-02    2.53567205E-02    2.29555123E+00    4.28143685E-02    2.33836560E+00   
                   9.00000000E+01    1.60000000E+01   -3.77467623E-01   -1.85731816E-01    5.98292306E-02    2.47444630E-02    2.22397257E+00    5.26760301E-02    2.27664860E+00   
                   9.00000000E+01    1.80000000E+01   -3.82577005E-01   -1.52702046E-01    6.64401095E-02    2.25111525E-02    2.13230047E+00    6.18396142E-02    2.19414008E+00   
                   9.00000000E+01    2.00000000E+01   -3.83710611E-01   -1.15733556E-01    7.20179573E-02    1.85863886E-02    2.01851210E+00    6.95176650E-02    2.08802977E+00   
                   9.00000000E+01    2.20000000E+01   -3.79497762E-01   -7.55651876E-02    7.61013816E-02    1.30106782E-02    1.88154570E+00    7.49043406E-02    1.95645004E+00   
                   9.00000000E+01    2.40000000E+01   -3.68638310E-01   -3.33455392E-02    7.81827598E-02    5.97181959E-03    1.72166979E+00    7.72606422E-02    1.79893043E+00   
                   9.00000000E+01    2.60000000E+01   -3.50038236E-01    9.33720779E-03    7.77507978E-02   -2.16227219E-03    1.54081234E+00    7.60248079E-02    1.61683715E+00   
                   9.00000000E+01    2.80000000E+01   -3.22969438E-01    5.04691182E-02    7.43507708E-02   -1.08213705E-02    1.34279700E+00    7.09389111E-02    1.41373591E+00   
                   9.00000000E+01    3.00000000E+01   -2.87240813E-01    8.76819431E-02    6.76606104E-02   -1.92298480E-02    1.13342893E+00    6.21752006E-02    1.19560413E+00   
                   9.00000000E+01    3.20000000E+01   -2.43360587E-01    1.18392577E-01    5.75772160E-02   -2.64315414E-02    9.20375778E-01    5.04384231E-02    9.70814201E-01   
                   9.00000000E+01    3.40000000E+01   -1.92663417E-01    1.40013977E-01    4.43028852E-02   -3.13501390E-02    7.12803570E-01    3.70152104E-02    7.49818780E-01   
                   9.00000000E+01    3.60000000E+01   -1.37371687E-01    1.50230571E-01    2.84172996E-02   -3.28891902E-02    5.20752971E-01    2.37409119E-02    5.44493883E-01   
                   9.00000000E+01    3.80000000E+01   -8.05603587E-02    1.47317928E-01    1.09170908E-02   -3.00699173E-02    3.54277948E-01    1.28602075E-02    3.67138156E-01   
                   9.00000000E+01    4.00000000E+01   -2.60005523E-02    1.30472071E-01   -6.79602064E-03   -2.21968748E-02    2.22412068E-01    6.77185559E-03    2.29183923E-01   
                   9.00000000E+01    4.20000000E+01    2.21304142E-02    1.00100743E-01   -2.29948802E-02   -9.03207798E-03    1.32071475E-01    7.66979571E-03    1.39741270E-01   
                   9.00000000E+01    4.40000000E+01    5.96654937E-02    5.80205251E-02   -3.57833930E-02    9.05081324E-03    8.70391122E-02    1.71200267E-02    1.04159139E-01   
                   9.00000000E+01    4.60000000E+01    8.29595681E-02    7.50329997E-03   -4.33267151E-02    3.09669767E-02    8.71928867E-02    3.56402112E-02    1.22833098E-01   
                   9.00000000E+01    4.80000000E+01    8.94391290E-02   -4.68739315E-02   -4.41359161E-02    5.49112552E-02    1.28133290E-01    6.23697253E-02    1.90503015E-01   
                   9.00000000E+01    5.00000000E+01    7.81104518E-02   -9.95992751E-02   -3.73703129E-02    7.84683207E-02    2.01329069E-01    9.49240719E-02    2.96253141E-01   
                   9.00000000E+01    5.20000000E+01    4.99336996E-02   -1.44805954E-01   -2.31053526E-02    9.88556432E-02    2.94833929E-01    1.29512729E-01    4.24346659E-01   
                   9.00000000E+01    5.40000000E+01    7.97219495E-03   -1.77011233E-01   -2.50538923E-03    1.13289081E-01    3.94540463E-01    1.61360905E-01    5.55901368E-01   
                   9.00000000E+01    5.60000000E+01   -4.27535799E-02   -1.91922603E-01    2.21566761E-02    1.19432210E-01    4.85842957E-01    1.85416436E-01    6.71259393E-01   
                   9.00000000E+01    5.80000000E+01   -9.57384518E-02   -1.87187378E-01    4.76742615E-02    1.15862260E-01    5.55495983E-01    1.97253043E-01    7.52749026E-01   
                   9.00000000E+01    6.00000000E+01   -1.43768406E-01   -1.62947290E-01    7.02870590E-02    1.02464782E-01    5.93398772E-01    1.94015994E-01    7.87414766E-01   
                   9.00000000E+01    6.20000000E+01   -1.79915667E-01   -1.22069854E-01    8.62353666E-02    8.06632335E-02    5.94021092E-01    1.75214108E-01    7.69235199E-01   
                   9.00000000E+01    6.40000000E+01   -1.98612786E-01   -6.99663401E-02    9.24136889E-02    5.34038088E-02    5.57222119E-01    1.43159320E-01    7.00381439E-01   
                   9.00000000E+01    6.60000000E+01   -1.96627423E-01   -1.39694167E-02    8.70111843E-02    2.48516973E-02    4.88297594E-01    1.02900392E-01    5.91197987E-01   
                   9.00000000E+01    6.80000000E+01   -1.73751045E-01    3.76769416E-02    7.00071031E-02   -1.91473861E-04    3.97210129E-01    6.15881737E-02    4.58798302E-01   
                   9.00000000E+01    7.00000000E+01   -1.33042736E-01    7.70811980E-02    4.33964192E-02   -1.70771519E-02    2.97092636E-01    2.73303269E-02    3.24422963E-01   
                   9.00000000E+01    7.20000000E+01   -8.05336739E-02    9.80211907E-02    1.10578914E-02   -2.21774463E-02    2.02240988E-01    7.71721033E-03    2.09958198E-01   
                   9.00000000E+01    7.40000000E+01   -2.43902118E-02    9.70790672E-02   -2.17597584E-02   -1.36647110E-02    1.25905329E-01    8.29646129E-03    1.34201790E-01   
                   9.00000000E+01    7.60000000E+01    2.63619675E-02    7.43676869E-02   -4.92789887E-02    7.96804359E-03    7.82320179E-02    3.13142451E-02    1.09546263E-01   
                   9.00000000E+01    7.80000000E+01    6.33541693E-02    3.36777973E-02   -6.62296833E-02    3.97840131E-02    6.46909822E-02    7.50104085E-02    1.39701391E-01   
                   9.00000000E+01    8.00000000E+01    8.03670592E-02   -1.80279633E-02   -6.88905115E-02    7.67463782E-02    8.52486456E-02    1.33654776E-01    2.18903422E-01   
                   9.00000000E+01    8.20000000E+01    7.45161506E-02   -7.17265863E-02   -5.59235847E-02    1.12506726E-01    1.34426989E-01    1.98362807E-01    3.32789796E-01   
                   9.00000000E+01    8.40000000E+01    4.68852122E-02   -1.17880984E-01   -2.88135806E-02    1.40519492E-01    2.02245048E-01    2.58565016E-01    4.60810064E-01   
                   9.00000000E+01    8.60000000E+01    2.45374157E-03   -1.48151833E-01    8.21089527E-03    1.55284943E-01    2.75894496E-01    3.03865301E-01    5.79759797E-01   
                   9.00000000E+01    8.80000000E+01   -5.07052054E-02   -1.56955137E-01    4.87975708E-02    1.53481180E-01    3.41879838E-01    3.25942444E-01    6.67822282E-01   
                   9.00000000E+01    9.00000000E+01   -1.02836368E-01   -1.42557692E-01    8.55462345E-02    1.34752442E-01    3.88275897E-01    3.20145617E-01    7.08421514E-01   
                   9.00000000E+01    9.20000000E+01   -1.44274140E-01   -1.07479235E-01    1.11356002E-01    1.01977496E-01    4.06733373E-01    2.86507831E-01    6.93241204E-01   
                   9.00000000E+01    9.40000000E+01   -1.67242766E-01   -5.80991113E-02    1.20796611E-01    6.09379640E-02    3.93901048E-01    2.30030640E-01    6.23931688E-01   
                   9.00000000E+01    9.60000000E+01   -1.67334649E-01   -3.52168972E-03    1.11241612E-01    1.94222824E-02    3.52025346E-01    1.60245369E-01    5.12270716E-01   
                   9.00000000E+01    9.80000000E+01   -1.44371128E-01    4.60940015E-02    8.35396742E-02   -1.40874812E-02    2.88620374E-01    9.01930428E-02    3.78813417E-01   
                   9.00000000E+01    1.00000000E+02   -1.02468392E-01    8.14222528E-02    4.20840777E-02   -3.19150374E-02    2.15253819E-01    3.50556402E-02    2.50309459E-01   
                   9.00000000E+01    1.02000000E+02   -4.92893185E-02    9.57097861E-02   -5.74755123E-03   -2.86058834E-02    1.45641723E-01    1.06981398E-02    1.56339863E-01   
                   9.00000000E+01    1.04000000E+02    5.37385348E-03    8.60276433E-02   -5.06939734E-02   -2.00403888E-03    9.33635307E-02    3.23445199E-02    1.25708051E-01   
                   9.00000000E+01    1.06000000E+02    5.14069847E-02    5.37967282E-02   -8.30633033E-02    4.62038167E-02    6.95770541E-02    1.13528425E-01    1.83105479E-01   
                   9.00000000E+01    1.08000000E+02    8.02179619E-02    4.49648109E-03   -9.42882828E-02    1.10572340E-01    8.11176785E-02    2.65358050E-01    3.46475729E-01   
                   9.00000000E+01    1.10000000E+02    8.62639620E-02   -5.33690069E-02   -7.83202060E-02    1.82592276E-01    1.29304461E-01    4.96044837E-01    6.25349298E-01   
                   9.00000000E+01    1.12000000E+02    6.79828722E-02   -1.09828478E-01   -3.26327357E-02    2.51872738E-01    2.09656894E-01    8.10590868E-01    1.02024776E+00   
                   9.00000000E+01    1.14000000E+02    2.79783554E-02   -1.55211979E-01    4.13185878E-02    3.07608653E-01    3.12570209E-01    1.21052236E+00    1.52309257E+00   
                   9.00000000E+01    1.16000000E+02   -2.75389663E-02   -1.81792943E-01    1.38237236E-01    3.40091764E-01    4.24832157E-01    1.69359416E+00    2.11842632E+00   
                   9.00000000E+01    1.18000000E+02   -8.99088238E-02   -1.85011900E-01    2.49681003E-01    3.42028972E-01    5.31720835E-01    2.25345713E+00    2.78517796E+00   
                   9.00000000E+01    1.20000000E+02   -1.49528648E-01   -1.64090634E-01    3.65178610E-01    3.09477481E-01    6.19327955E-01    2.87935422E+00    3.49868218E+00   
                   9.00000000E+01    1.22000000E+02   -1.97417718E-01   -1.21975860E-01    4.73576702E-01    2.42280837E-01    6.76722504E-01    3.55596743E+00    4.23268993E+00   
                   9.00000000E+01    1.24000000E+02   -2.26562136E-01   -6.46810077E-02    5.64405622E-01    1.43977415E-01    6.97609926E-01    4.26355846E+00    4.96116838E+00   
                   9.00000000E+01    1.26000000E+02   -2.32833553E-01   -1.96855921E-04    6.29068613E-01    2.12367408E-02    6.81241827E-01    4.97852359E+00    5.65976542E+00   
                   9.00000000E+01    1.28000000E+02   -2.15374822E-01    6.28011477E-02    6.61705499E-01   -1.17055221E-01    6.32469181E-01    5.67442121E+00    6.30689039E+00   
                   9.00000000E+01    1.30000000E+02   -1.76452794E-01    1.16214335E-01    6.59646773E-01   -2.60902025E-01    5.60979875E-01    6.32344458E+00    6.88442446E+00   
                   9.00000000E+01    1.32000000E+02   -1.20870157E-01    1.53554263E-01    6.23443984E-01   -4.00325755E-01    4.79890925E-01    6.89822258E+00    7.37811351E+00   
                   9.00000000E+01    1.34000000E+02   -5.50889255E-02    1.70619114E-01    5.56524788E-01   -5.26369883E-01    4.03954426E-01    7.37375896E+00    7.77771339E+00   
                   9.00000000E+01    1.36000000E+02    1.37585268E-02    1.65763595E-01    4.64566784E-01   -6.31865847E-01    3.47672096E-01    7.72928234E+00    8.07695444E+00   
                   9.00000000E+01    1.38000000E+02    7.88067056E-02    1.39787022E-01    3.54708504E-01   -7.11902688E-01    3.23595457E-01    7.94978211E+00    8.27337756E+00   
                   9.00000000E+01    1.40000000E+02    1.34216136E-01    9.55202657E-02    2.34718445E-01   -7.63989162E-01    3.41027327E-01    8.02704806E+00    8.36807538E+00   
                   9.00000000E+01    1.42000000E+02    1.75679702E-01    3.72234244E-02    1.12227388E-01   -7.87940299E-01    4.05252145E-01    7.96010340E+00    8.36535555E+00   
                   9.00000000E+01    1.44000000E+02    2.00654711E-01   -3.00877199E-02   -5.89845296E-03   -7.85550149E-01    5.17327116E-01    7.75500674E+00    8.27233386E+00   
                   9.00000000E+01    1.46000000E+02    2.08344279E-01   -1.01282723E-01   -1.13999014E-01   -7.60127547E-01    6.74380920E-01    7.42408185E+00    8.09846277E+00   
                   9.00000000E+01    1.48000000E+02    1.99482631E-01   -1.71648756E-01   -2.07864469E-01   -7.15972913E-01    8.70304301E-01    6.98470106E+00    7.85500536E+00   
                   9.00000000E+01    1.50000000E+02    1.75994059E-01   -2.37270693E-01   -2.84796306E-01   -6.57864414E-01    1.09668338E+00    6.45778903E+00    7.55447241E+00   
                   9.00000000E+01    1.52000000E+02    1.40596064E-01   -2.95246813E-01   -3.43518471E-01   -5.90605241E-01    1.34382171E+00    5.86622673E+00    7.21004844E+00   
                   9.00000000E+01    1.54000000E+02    9.64073553E-02   -3.43752953E-01   -3.83981417E-01   -5.18664422E-01    1.60171552E+00    5.23332173E+00    6.83503725E+00   
                   9.00000000E+01    1.56000000E+02    4.66052907E-02   -3.81984450E-01   -4.07103716E-01   -4.45924881E-01    1.86088061E+00    4.58147800E+00    6.44235860E+00   
                   9.00000000E+01    1.58000000E+02   -5.84061046E-03   -4.10012993E-01   -4.14491646E-01   -3.75536947E-01    2.11296946E+00    3.93115435E+00    6.04412381E+00   
                   9.00000000E+01    1.60000000E+02   -5.83490706E-02   -4.28595924E-01   -4.08169092E-01   -3.09864311E-01    2.35115639E+00    3.30015385E+00    5.65131024E+00   
                   9.00000000E+01    1.62000000E+02   -1.08824486E-01   -4.38970711E-01   -3.90340383E-01   -2.50502961E-01    2.57030098E+00    2.70324432E+00    5.27354531E+00   
                   9.00000000E+01    1.64000000E+02   -1.55683336E-01   -4.42659500E-01   -3.63199112E-01   -1.98351247E-01    2.76692298E+00    2.15207657E+00    4.91899955E+00   
                   9.00000000E+01    1.66000000E+02   -1.97826137E-01   -4.41300040E-01   -3.28787773E-01   -1.53710140E-01    2.93903414E+00    1.65534547E+00    4.59437960E+00   
                   9.00000000E+01    1.68000000E+02   -2.34572618E-01   -4.36511097E-01   -2.88906785E-01   -1.16395730E-01    3.08587652E+00    1.21912765E+00    4.30500417E+00   
                   9.00000000E+01    1.70000000E+02   -2.65576477E-01   -4.29793972E-01   -2.45067405E-01   -8.58501740E-02    3.20761288E+00    8.47328826E-01    4.05494171E+00   
                   9.00000000E+01    1.72000000E+02   -2.90733258E-01   -4.22466967E-01   -1.98480896E-01   -6.12416717E-02    3.30500782E+00    5.42178681E-01    3.84718650E+00   
                   9.00000000E+01    1.74000000E+02   -3.10091617E-01   -4.15626858E-01   -1.50075755E-01   -4.15481762E-02    3.37912842E+00    3.04721711E-01    3.68385014E+00   
                   9.00000000E+01    1.76000000E+02   -3.23774999E-01   -4.10130193E-01   -1.00535362E-01   -2.56230085E-02    3.43108445E+00    1.35263127E-01    3.56634758E+00   
                   9.00000000E+01    1.78000000E+02   -3.31918105E-01   -4.06587307E-01   -5.03495623E-02   -1.22432496E-02    3.46181981E+00    3.37403982E-02    3.49556020E+00   
                   9.00000000E+01    1.80000000E+02   -3.34620521E-01   -4.05362834E-01    1.24902315E-04   -1.43753533E-04    3.47196154E+00    4.55727806E-07    3.47196199E+00   
                   9.00000000E+01    1.82000000E+02   -3.31918629E-01   -4.06577980E-01    5.05988930E-02    1.19590678E-02    3.46172886E+00    3.39702584E-02    3.49569912E+00   
                   9.00000000E+01    1.84000000E+02   -3.23776217E-01   -4.10111615E-01    1.00783111E-01    2.53487477E-02    3.43090287E+00    1.35714219E-01    3.56661709E+00   
                   9.00000000E+01    1.86000000E+02   -3.10093871E-01   -4.15599203E-01    1.50320338E-01    4.12902557E-02    3.37885712E+00    3.05376492E-01    3.68423361E+00   
                   9.00000000E+01    1.88000000E+02   -2.90737060E-01   -4.22430536E-01    1.98719963E-01    6.10061765E-02    3.30464880E+00    5.43010183E-01    3.84765898E+00   
                   9.00000000E+01    1.90000000E+02   -2.65582503E-01   -4.29749245E-01    2.45297593E-01    8.56426412E-02    3.20717000E+00    8.48300023E-01    4.05547002E+00   
                   9.00000000E+01    1.92000000E+02   -2.34581684E-01   -4.36458801E-01    2.89123531E-01    1.16220865E-01    3.08535628E+00    1.22019089E+00    4.30554716E+00   
                   9.00000000E+01    1.94000000E+02   -1.97839155E-01   -4.41241224E-01    3.28985232E-01    1.53571463E-01    2.93844658E+00    1.65644213E+00    4.59488871E+00   
                   9.00000000E+01    1.96000000E+02   -1.55701236E-01   -4.42595616E-01    3.63370196E-01    1.98250669E-01    2.76628234E+00    2.15313736E+00    4.91941970E+00   
                   9.00000000E+01    1.98000000E+02   -1.08848096E-01   -4.38903681E-01    3.90476971E-01    2.50440326E-01    2.56962612E+00    2.70419023E+00    5.27381635E+00   
                   9.00000000E+01    2.00000000E+02   -5.83789497E-02   -4.28528190E-01    4.08262430E-01    3.09836946E-01    2.35047066E+00    3.30089835E+00    5.65136901E+00   
                   9.00000000E+01    2.02000000E+02   -5.87683404E-03   -4.09947503E-01    4.14532963E-01    3.75539281E-01    2.11229999E+00    3.93160681E+00    6.04390680E+00   
                   9.00000000E+01    2.04000000E+02    4.65633763E-02   -3.81924576E-01    4.07085053E-01    4.45948219E-01    1.86025676E+00    4.58154862E+00    6.44180538E+00   
                   9.00000000E+01    2.06000000E+02    9.63613897E-02   -3.43702296E-01    3.83896625E-01    5.18696967E-01    1.60116655E+00    5.23292778E+00    6.83409433E+00   
                   9.00000000E+01    2.08000000E+02    1.40548898E-01   -2.95208892E-01    3.43364314E-01    5.90632453E-01    1.34337371E+00    5.86530003E+00    7.20867374E+00   
                   9.00000000E+01    2.10000000E+02    1.75949893E-01   -2.37248499E-01    2.84573551E-01    6.57869782E-01    1.09635571E+00    6.45628399E+00    7.55263970E+00   
                   9.00000000E+01    2.12000000E+02    1.99447000E-01   -1.71644192E-01    2.07578792E-01    7.15939176E-01    8.70105988E-01    6.98260258E+00    7.85270856E+00   
                   9.00000000E+01    2.14000000E+02    2.08323817E-01   -1.01295982E-01    1.13661541E-01    7.60038325E-01    6.74307536E-01    7.42141199E+00    8.09571952E+00   
                   9.00000000E+01    2.16000000E+02    2.00656643E-01   -3.01166868E-02    5.52574134E-03    7.85391894E-01    5.17358777E-01    7.75182912E+00    8.26918790E+00   
                   9.00000000E+01    2.18000000E+02    1.75711037E-01    3.71836369E-02   -1.12614098E-01    7.87704347E-01    4.05353307E-01    7.95652414E+00    8.36187745E+00   
                   9.00000000E+01    2.20000000E+02    1.34282588E-01    9.54774916E-02   -2.35094801E-01    7.63673611E-01    3.41148876E-01    8.02321231E+00    8.36436119E+00   
                   9.00000000E+01    2.22000000E+02    7.89114496E-02    1.39751792E-01   -3.55049405E-01    7.11513758E-01    3.23679298E-01    7.94586578E+00    8.26954508E+00   
                   9.00000000E+01    2.24000000E+02    1.39009466E-02    1.65748346E-01   -4.64849376E-01    6.31418368E-01    3.47658074E-01    7.72547916E+00    8.07313723E+00   
                   9.00000000E+01    2.26000000E+02   -5.49142489E-02    1.70636815E-01   -5.56731742E-01    5.25886603E-01    4.03788869E-01    7.37026372E+00    7.77405259E+00   
                   9.00000000E+01    2.28000000E+02   -1.20673948E-01    1.53616515E-01   -6.23566581E-01    3.99835323E-01    4.79535662E-01    6.89521237E+00    7.37474804E+00   
                   9.00000000E+01    2.30000000E+02   -1.76250811E-01    1.16329155E-01   -6.59687228E-01    2.60435683E-01    5.60420174E-01    6.32106015E+00    6.88148033E+00   
                   9.00000000E+01    2.32000000E+02   -2.15186620E-01    6.29707414E-02   -6.61677956E-01    1.16642510E-01    6.31718936E-01    5.67275114E+00    6.30447008E+00   
                   9.00000000E+01    2.34000000E+02   -2.32680245E-01    2.21244194E-05   -6.28998368E-01   -2.15727023E-02    6.80344520E-01    4.97759379E+00    5.65793831E+00   
                   9.00000000E+01    2.36000000E+02   -2.26463309E-01   -6.44265066E-02   -5.64326389E-01   -1.44224317E-01    6.96634410E-01    4.26332881E+00    4.95996322E+00   
                   9.00000000E+01    2.38000000E+02   -1.97387889E-01   -1.21707758E-01   -4.73526075E-01   -2.42440376E-01    6.75753524E-01    3.55633667E+00    4.23209019E+00   
                   9.00000000E+01    2.40000000E+02   -1.49573836E-01   -1.63836940E-01   -3.65192252E-01   -3.09566595E-01    6.18452363E-01    2.88017266E+00    3.49862502E+00   
                   9.00000000E+01    2.42000000E+02   -9.00239568E-02   -1.84803244E-01   -2.49786452E-01   -3.42078596E-01    5.31011490E-01    2.25454559E+00    2.78555708E+00   
                   9.00000000E+01    2.44000000E+02   -2.77067778E-02   -1.81657985E-01   -1.38448430E-01   -3.40143004E-01    4.24332268E-01    1.69476648E+00    2.11909875E+00   
                   9.00000000E+01    2.46000000E+02    2.77864162E-02   -1.55172374E-01   -4.16322080E-02   -3.07706778E-01    3.12281229E-01    1.21160801E+00    1.52388924E+00   
                   9.00000000E+01    2.48000000E+02    6.78035657E-02   -1.09894329E-01    3.22382060E-02   -2.52059889E-01    2.09532756E-01    8.11454401E-01    1.02098716E+00   
                   9.00000000E+01    2.50000000E+02    8.61372894E-02   -5.35357644E-02    7.78822837E-02   -1.82900142E-01    1.29254053E-01    4.96599243E-01    6.25853296E-01   
                   9.00000000E+01    2.52000000E+02    8.01810274E-02    4.24885102E-03    9.38553131E-02   -1.11016197E-01    8.10160183E-02    2.65570336E-01    3.46586354E-01   
                   9.00000000E+01    2.54000000E+02    5.14877660E-02    5.35018874E-02    8.26871019E-02   -4.67791358E-02    6.92839556E-02    1.13417079E-01    1.82701034E-01   
                   9.00000000E+01    2.56000000E+02    5.58610597E-03    8.57284271E-02    5.04215718E-02    1.32163129E-03    9.27469502E-02    3.19698724E-02    1.24716823E-01   
                   9.00000000E+01    2.58000000E+02   -4.89489177E-02    9.54518257E-02    5.61358493E-03    2.78571730E-02    1.44601824E-01    1.01477768E-02    1.54749601E-01   
                   9.00000000E+01    2.60000000E+02   -1.02020146E-01    8.12468192E-02   -4.20628779E-02    3.11509007E-02    2.13743356E-01    3.44276371E-02    2.48170993E-01   
                   9.00000000E+01    2.62000000E+02   -1.43849145E-01    4.60314671E-02   -8.33668284E-02    1.33608696E-02    2.86657417E-01    8.95798871E-02    3.76237304E-01   
                   9.00000000E+01    2.64000000E+02   -1.66781135E-01   -3.45643784E-03   -1.10939665E-01   -2.00645051E-02    3.49695628E-01    1.59721005E-01    5.09416633E-01   
                   9.00000000E+01    2.66000000E+02   -1.66700903E-01   -5.79083481E-02   -1.20402668E-01   -6.14617662E-02    3.91349049E-01    2.29642270E-01    6.20991319E-01   
                   9.00000000E+01    2.68000000E+02   -1.43781002E-01   -1.07180823E-01   -1.10915019E-01   -1.02365773E-01    4.04143342E-01    2.86273143E-01    6.90416485E-01   
                   9.00000000E+01    2.70000000E+02   -1.02417337E-01   -1.42180629E-01   -8.51034927E-02   -1.35005830E-01    3.85845911E-01    3.20055137E-01    7.05901049E-01   
                   9.00000000E+01    2.72000000E+02   -5.03710051E-02   -1.56533235E-01   -4.83918552E-02   -1.53615676E-01    3.39793301E-01    3.25965970E-01    6.65759271E-01   
                   9.00000000E+01    2.74000000E+02    2.70687227E-03   -1.47716935E-01   -7.86964563E-03   -1.55327087E-01    2.74293963E-01    3.03960841E-01    5.78254804E-01   
                   9.00000000E+01    2.76000000E+02    4.70724092E-02   -1.17457197E-01    2.90763921E-02   -1.40500316E-01    2.01212788E-01    2.58688482E-01    4.59901271E-01   
                   9.00000000E+01    2.78000000E+02    7.46587245E-02   -7.13267037E-02    5.61067476E-02   -1.12455837E-01    1.33975403E-01    1.98476806E-01    3.32452208E-01   
                   9.00000000E+01    2.80000000E+02    8.04864860E-02   -1.76527198E-02    6.90025602E-02   -7.66873659E-02    8.53217980E-02    1.33735154E-01    2.19056952E-01   
                   9.00000000E+01    2.82000000E+02    6.34666606E-02    3.40376818E-02    6.62845275E-02   -3.97319447E-02    6.51764964E-02    7.50497082E-02    1.40226205E-01   
                   9.00000000E+01    2.84000000E+02    2.64747875E-02    7.47273469E-02    4.92913316E-02   -7.92927442E-03    7.89807798E-02    3.13217889E-02    1.10302569E-01   
                   9.00000000E+01    2.86000000E+02   -2.42799933E-02    9.74543134E-02    2.17413401E-02    1.36907396E-02    1.26755237E-01    8.29534047E-03    1.35050578E-01   
                   9.00000000E+01    2.88000000E+02   -8.04379061E-02    9.84235560E-02   -1.11005084E-02    2.21951434E-02    2.03040544E-01    7.73894505E-03    2.10779489E-01   
                   9.00000000E+01    2.90000000E+02   -1.32978874E-01    7.75142972E-02   -4.34622554E-02    1.70913576E-02    2.97720531E-01    2.74082866E-02    3.25128818E-01   
                   9.00000000E+01    2.92000000E+02   -1.73737687E-01    3.81348463E-02   -7.00995358E-02    2.04545378E-04    3.97588032E-01    6.17509788E-02    4.59339011E-01   
                   9.00000000E+01    2.94000000E+02   -1.96679767E-01   -1.35015958E-02   -8.71356167E-02   -2.48416648E-02    4.88394805E-01    1.03166435E-01    5.91561239E-01   
                   9.00000000E+01    2.96000000E+02   -1.98738969E-01   -6.95099629E-02   -9.25748169E-02   -5.34033449E-02    5.57052288E-01    1.43533261E-01    7.00585549E-01   
                   9.00000000E+01    2.98000000E+02   -1.80114672E-01   -1.21649026E-01   -8.64347424E-02   -8.06825129E-02    5.93632591E-01    1.75685810E-01    7.69318402E-01   
                   9.00000000E+01    3.00000000E+02   -1.44029819E-01   -1.62584755E-01   -7.05214917E-02   -1.02515667E-01    5.92861149E-01    1.94561884E-01    7.87423033E-01   
                   9.00000000E+01    3.02000000E+02   -9.60439442E-02   -1.86900857E-01   -4.79353389E-02   -1.15955893E-01    5.54885304E-01    1.97839483E-01    7.52724788E-01   
                   9.00000000E+01    3.04000000E+02   -4.30796624E-02   -1.91722218E-01   -2.24314195E-02   -1.19576716E-01    4.85228613E-01    1.86004398E-01    6.71233011E-01   
                   9.00000000E+01    3.06000000E+02    7.65077410E-03   -1.76898357E-01    2.23296480E-03   -1.13487836E-01    3.93975361E-01    1.61911088E-01    5.55886450E-01   
                   9.00000000E+01    3.08000000E+02    4.96405806E-02   -1.44773515E-01    2.28521465E-02   -9.91063995E-02    2.94349110E-01    1.29990295E-01    4.24339406E-01   
                   9.00000000E+01    3.10000000E+02    7.78648684E-02   -9.96332768E-02    3.71519453E-02   -7.87632741E-02    2.00932843E-01    9.53023542E-02    2.96235197E-01   
                   9.00000000E+01    3.12000000E+02    8.92540601E-02   -4.69557739E-02    4.39648183E-02   -5.52379485E-02    1.27814214E-01    6.26325027E-02    1.90446716E-01   
                   9.00000000E+01    3.14000000E+02    8.28409778E-02    7.39417730E-03    4.32107838E-02   -3.13098063E-02    8.69253737E-02    3.57824362E-02    1.22707810E-01   
                   9.00000000E+01    3.16000000E+02    5.96125961E-02    5.79041270E-02    3.57253488E-02   -9.39283657E-03    8.67902612E-02    1.71471385E-02    1.03937400E-01   
                   9.00000000E+01    3.18000000E+02    2.21367463E-02    9.99944702E-02    2.29923350E-02    8.70733749E-03    1.31807777E-01    7.59593365E-03    1.39403711E-01   
                   9.00000000E+01    3.20000000E+02   -2.59455490E-02    1.30389338E-01    6.84214301E-03    2.19038762E-02    2.22104957E-01    6.61738431E-03    2.28722341E-01   
                   9.00000000E+01    3.22000000E+02   -8.04695629E-02    1.47267505E-01   -1.08324899E-02    2.98199719E-02    3.53907558E-01    1.26489764E-02    3.66556534E-01   