##File Type: Far field
##File Format: 5
##Source: RWG_wire_XY_rad_theta450.2
##Date: 2020-09-16 10:50:29
** File exported by POSTFEKO version 2018-319328 (x64)

#Configuration Name: StandardConfiguration1
#Request Name: FarField1
#Frequency: 3.00000000E+08
#Coordinate System: Spherical
#No. of Theta Samples: 1
#No. of Phi Samples: 181
#Result Type: RCS
#Incident Wave Direction: (4.50000000E+01, 0.00000000E+00)
#No. of Header Lines: 1
#                 "Theta"           "Phi"             "Re(Etheta)"      "Im(Etheta)"      "Re(Ephi)"        "Im(Ephi)"        "RCS(Theta)"      "RCS(Phi)"        "RCS(Total)"      
                   9.00000000E+01    0.00000000E+00   -1.33239799E-01   -2.25041410E-01   -2.05110860E-04   -6.37987094E-04    8.59495521E-01    5.64353187E-06    8.59501164E-01   
                   9.00000000E+01    2.00000000E+00   -1.34122363E-01   -2.24407093E-01    8.79247880E-03   -4.26634655E-03    8.58878153E-01    1.20020647E-03    8.60078360E-01   
                   9.00000000E+01    4.00000000E+00   -1.36743295E-01   -2.22443087E-01    1.76902888E-02   -8.05188751E-03    8.56770821E-01    4.74731358E-03    8.61518135E-01   
                   9.00000000E+01    6.00000000E+00   -1.41009985E-01   -2.19041910E-01    2.63829781E-02   -1.21508440E-02    8.52793795E-01    1.06023039E-02    8.63396099E-01   
                   9.00000000E+01    8.00000000E+00   -1.46759931E-01   -2.14033128E-01    3.47491113E-02   -1.67088185E-02    8.46328192E-01    1.86822392E-02    8.65010431E-01   
                   9.00000000E+01    1.00000000E+01   -1.53749870E-01   -2.07197187E-01    4.26441923E-02   -2.18538164E-02    8.36539482E-01    2.88538500E-02    8.65393332E-01   
                   9.00000000E+01    1.20000000E+01   -1.61642796E-01   -1.98286054E-01    4.98953221E-02   -2.76874192E-02    8.22415582E-01    4.09178161E-02    8.63333398E-01   
                   9.00000000E+01    1.40000000E+01   -1.69995268E-01   -1.87051587E-01    5.62983452E-02   -3.42737891E-02    8.02823793E-01    5.45907806E-02    8.57414573E-01   
                   9.00000000E+01    1.60000000E+01   -1.78248195E-01   -1.73282166E-01    6.16185531E-02   -4.16265204E-02    7.76590744E-01    6.94871700E-02    8.46077914E-01   
                   9.00000000E+01    1.80000000E+01   -1.85725030E-01   -1.56847406E-01    6.55961812E-02   -4.96938159E-02    7.42608357E-01    8.51036631E-02    8.27712020E-01   
                   9.00000000E+01    2.00000000E+01   -1.91641913E-01   -1.37749513E-01    6.79579894E-02   -5.83430644E-02    6.99966336E-01    1.00809957E-01    8.00776292E-01   
                   9.00000000E+01    2.20000000E+01   -1.95134404E-01   -1.16178056E-01    6.84360646E-02   -6.73466231E-02    6.48107752E-01    1.15850157E-01    7.63957909E-01   
                   9.00000000E+01    2.40000000E+01   -1.95304945E-01   -9.25628014E-02    6.67945319E-02   -7.63713972E-02    5.86998971E-01    1.29359473E-01    7.16358444E-01   
                   9.00000000E+01    2.60000000E+01   -1.91293696E-01   -6.76168874E-02    6.28640149E-02   -8.49755503E-02    5.17298689E-01    1.40400647E-01    6.57699337E-01   
                   9.00000000E+01    2.80000000E+01   -1.82372688E-01   -4.23604727E-02    5.65823939E-02   -9.26161984E-02    4.40504155E-01    1.48023395E-01    5.88527550E-01   
                   9.00000000E+01    3.00000000E+01   -1.68059285E-01   -1.81136667E-02    4.80386886E-02   -9.86720055E-02    3.59046696E-01    1.51347863E-01    5.10394559E-01   
                   9.00000000E+01    3.20000000E+01   -1.48239845E-01    3.55235443E-03    3.75148620E-02   -1.02483936E-01    2.76305223E-01    1.49669521E-01    4.25974744E-01   
                   9.00000000E+01    3.40000000E+01   -1.23288736E-01    2.09148153E-02    2.55182882E-02   -1.03415799E-01    1.96507146E-01    1.42578172E-01    3.39085318E-01   
                   9.00000000E+01    3.60000000E+01   -9.41624469E-02    3.22530767E-02    1.27959745E-02   -1.00933447E-01    1.24492864E-01    1.30078243E-01    2.54571107E-01   
                   9.00000000E+01    3.80000000E+01   -6.24447160E-02    3.60522408E-02    3.20963927E-04   -9.46976483E-02    6.53339007E-02    1.12692040E-01    1.78025941E-01   
                   9.00000000E+01    4.00000000E+01   -3.03179204E-02    3.12415523E-02   -1.07576829E-02   -8.46609645E-02    2.38159224E-02    9.15234741E-02    1.15339397E-01   
                   9.00000000E+01    4.20000000E+01   -4.40111249E-04    1.74404695E-02   -1.92067437E-02   -7.11542089E-02    3.82474672E-03    6.82582689E-02    7.20830156E-02   
                   9.00000000E+01    4.40000000E+01    2.42829815E-02   -4.82604793E-03   -2.38422206E-02   -5.49441847E-02    7.70260624E-03    4.50795288E-02    5.27821350E-02   
                   9.00000000E+01    4.60000000E+01    4.10256229E-02   -3.39892061E-02   -2.36958601E-02   -3.72427798E-02    3.56679825E-02    2.44858048E-02    6.01537873E-02   
                   9.00000000E+01    4.80000000E+01    4.74432518E-02   -6.74220796E-02   -1.81967901E-02   -1.96494822E-02    8.54085814E-02    9.01291920E-03    9.44215006E-02   
                   9.00000000E+01    5.00000000E+01    4.20983129E-02   -1.01587690E-01   -7.34075465E-03   -4.01605784E-03    1.51956660E-01    8.79839458E-04    1.52836500E-01   
                   9.00000000E+01    5.20000000E+01    2.48419478E-02   -1.32367898E-01    8.18766124E-03    7.76617451E-03    2.27933641E-01    1.60034317E-03    2.29533984E-01   
                   9.00000000E+01    5.40000000E+01   -2.92881036E-03   -1.55561169E-01    2.69764146E-02    1.40401451E-02    3.04204880E-01    1.16220408E-02    3.15826920E-01   
                   9.00000000E+01    5.60000000E+01   -3.82163313E-02   -1.67500123E-01    4.69620689E-02    1.36837811E-02    3.70918788E-01    3.00673261E-02    4.00986114E-01   
                   9.00000000E+01    5.80000000E+01   -7.66279531E-02   -1.65702429E-01    6.56371910E-02    6.38750210E-03    4.18826302E-01    5.46516613E-02    4.73477963E-01   
                   9.00000000E+01    6.00000000E+01   -1.12860938E-01   -1.49439966E-01    8.03828617E-02   -7.15149337E-03    4.40701293E-01    8.18390958E-02    5.22540389E-01   
                   9.00000000E+01    6.20000000E+01   -1.41432770E-01   -1.20100685E-01    8.88916334E-02   -2.51770403E-02    4.32627506E-01    1.07261587E-01    5.39889092E-01   
                   9.00000000E+01    6.40000000E+01   -1.57563961E-01   -8.12326554E-02    8.96175548E-02   -4.50077551E-02    3.94900031E-01    1.26380041E-01    5.21280073E-01   
                   9.00000000E+01    6.60000000E+01   -1.58068921E-01   -3.82034104E-02    8.21680309E-02   -6.33710756E-02    3.32321246E-01    1.35308126E-01    4.67629372E-01   
                   9.00000000E+01    6.80000000E+01   -1.42080393E-01    2.52385936E-03    6.75447275E-02   -7.69113404E-02    2.53755336E-01    1.31665964E-01    3.85421300E-01   
                   9.00000000E+01    7.00000000E+01   -1.11436536E-01    3.44135924E-02    4.81532398E-02   -8.28011549E-02    1.70932760E-01    1.15293507E-01    2.86226267E-01   
                   9.00000000E+01    7.20000000E+01   -7.06033818E-02    5.20183616E-02    2.75357490E-02   -7.93471551E-02    9.66447829E-02    8.86455470E-02    1.85290330E-01   
                   9.00000000E+01    7.40000000E+01   -2.60859859E-02    5.20592988E-02    9.83392642E-03   -6.64606883E-02    4.26081551E-02    5.67211940E-02    9.93293491E-02   
                   9.00000000E+01    7.60000000E+01    1.46138813E-02    3.41954420E-02   -9.48400071E-04   -4.58700191E-02    1.73779558E-02    2.64516838E-02    4.38296396E-02   
                   9.00000000E+01    7.80000000E+01    4.43290492E-02    1.28886126E-03   -1.75564822E-03   -2.09874633E-02    2.47146049E-02    5.57388804E-03    3.02884929E-02   
                   9.00000000E+01    8.00000000E+01    5.76001134E-02   -4.09397570E-02    8.80077155E-03    3.59100149E-03    6.27544035E-02    1.13535740E-03    6.38897609E-02   
                   9.00000000E+01    8.20000000E+01    5.18081039E-02   -8.48474485E-02    2.99844688E-02    2.28959129E-02    1.24195566E-01    1.78856047E-02    1.42081171E-01   
                   9.00000000E+01    8.40000000E+01    2.78110573E-02   -1.22247598E-01    5.88706001E-02    3.25678767E-02    1.97517334E-01    5.68805978E-02    2.54397932E-01   
                   9.00000000E+01    8.60000000E+01   -1.00823667E-02   -1.45971613E-01    9.07384968E-02    2.98208861E-02    2.69038027E-01    1.14639984E-01    3.83678011E-01   
                   9.00000000E+01    8.80000000E+01   -5.48343946E-02   -1.51296216E-01    1.19886027E-01    1.41732668E-02    3.25435769E-01    1.83136517E-01    5.08572287E-01   
                   9.00000000E+01    9.00000000E+01   -9.79756714E-02   -1.36930395E-01    1.40732528E-01   -1.22364712E-02    3.56246119E-01    2.50766646E-01    6.07012764E-01   
                   9.00000000E+01    9.20000000E+01   -1.31227683E-01   -1.05338989E-01    1.48999556E-01   -4.48563511E-02    3.55842007E-01    3.04269029E-01    6.60111036E-01   
                   9.00000000E+01    9.40000000E+01   -1.48119213E-01   -6.23176350E-02    1.42723292E-01   -7.74507836E-02    3.24498734E-01    3.31357122E-01    6.55855856E-01   
                   9.00000000E+01    9.60000000E+01   -1.45259823E-01   -1.58953249E-02    1.22871078E-01   -1.03239004E-01    2.68330686E-01    3.23654339E-01    5.91985025E-01   
                   9.00000000E+01    9.80000000E+01   -1.23003975E-01    2.52124102E-02    9.34063378E-02   -1.16231319E-01    1.98116918E-01    2.79406509E-01    4.77523427E-01   
                   9.00000000E+01    1.00000000E+02   -8.53708304E-02    5.32796422E-02    6.07565788E-02   -1.12498919E-01    1.27258366E-01    2.05427093E-01    3.32685459E-01   
                   9.00000000E+01    1.02000000E+02   -3.92456243E-02    6.30313035E-02    3.27638772E-02   -9.11164383E-02    6.92804653E-02    1.17818232E-01    1.87098697E-01   
                   9.00000000E+01    1.04000000E+02    6.95957370E-03    5.25984953E-02    1.73074487E-02   -5.45772670E-02    3.53748030E-02    4.11954011E-02    7.65702041E-02   
                   9.00000000E+01    1.06000000E+02    4.49000400E-02    2.37927341E-02    2.08583406E-02   -8.58645254E-03    3.24477234E-02    6.39373843E-03    3.88414618E-02   
                   9.00000000E+01    1.08000000E+02    6.78213476E-02   -1.83266570E-02    4.72411139E-02    3.87390266E-02    6.20225983E-02    4.69031618E-02    1.08925760E-01   
                   9.00000000E+01    1.10000000E+02    7.17173596E-02   -6.64710976E-02    9.68343582E-02    7.81159588E-02    1.20156953E-01    1.94514800E-01    3.14671752E-01   
                   9.00000000E+01    1.12000000E+02    5.59228124E-02   -1.12495333E-01    1.66352245E-01    1.00556506E-01    1.98329508E-01    4.74816294E-01    6.73145802E-01   
                   9.00000000E+01    1.14000000E+02    2.30684675E-02   -1.48838961E-01    2.49234530E-01    9.87822003E-02    2.85070511E-01    9.03217612E-01    1.18828812E+00   
                   9.00000000E+01    1.16000000E+02   -2.15412490E-02   -1.69763003E-01    3.36558312E-01    6.83475262E-02    3.67987348E-01    1.48211396E+00    1.85010131E+00   
                   9.00000000E+01    1.18000000E+02   -7.09619557E-02   -1.72174123E-01    4.18295201E-01    8.29692475E-03    4.35795800E-01    2.19961392E+00    2.63540972E+00   
                   9.00000000E+01    1.20000000E+02   -1.17827681E-01   -1.55930258E-01    4.84688684E-01   -7.87258668E-02    4.80005295E-01    3.03001437E+00    3.51001967E+00   
                   9.00000000E+01    1.22000000E+02   -1.55519488E-01   -1.23631312E-01    5.27524276E-01   -1.86895719E-01    4.96007370E-01    3.93593646E+00    4.43194383E+00   
                   9.00000000E+01    1.24000000E+02   -1.79089420E-01   -7.99929265E-02    5.41104761E-01   -3.08043630E-01    4.83452011E-01    4.87179641E+00    5.35524842E+00   
                   9.00000000E+01    1.26000000E+02   -1.85816293E-01   -3.09629540E-02    5.22811640E-01   -4.32748531E-01    4.45935243E-01    5.78811180E+00    6.23404705E+00   
                   9.00000000E+01    1.28000000E+02   -1.75353564E-01    1.72380731E-02    4.73214749E-01   -5.51496841E-01    3.90135837E-01    6.63606111E+00    7.02619695E+00   
                   9.00000000E+01    1.30000000E+02   -1.49506721E-01    5.89870765E-02    3.95768010E-01   -6.55737093E-01    3.24611154E-01    7.37172773E+00    7.69633888E+00   
                   9.00000000E+01    1.32000000E+02   -1.11734189E-01    8.99171130E-02    2.96187292E-01   -7.38697795E-01    2.58485419E-01    7.95955605E+00    8.21804147E+00   
                   9.00000000E+01    1.34000000E+02   -6.64948009E-02    1.07299731E-01    1.81639043E-01   -7.95892455E-01    2.00242486E-01    8.37470114E+00    8.57494363E+00   
                   9.00000000E+01    1.36000000E+02   -1.85664723E-02    1.10143415E-01    5.98745869E-02   -8.25294007E-01    1.56781631E-01    8.60413319E+00    8.76091483E+00   
                   9.00000000E+01    1.38000000E+02    2.75596350E-02    9.90472210E-02   -6.15711953E-02   -8.27211021E-01    1.32825098E-01    8.64653114E+00    8.77935624E+00   
                   9.00000000E+01    1.40000000E+02    6.81386916E-02    7.58785728E-02   -1.76029322E-01   -8.03933359E-01    1.30695772E-01    8.51114210E+00    8.64183787E+00   
                   9.00000000E+01    1.42000000E+02    1.00452462E-01    4.33558621E-02   -2.78144738E-01   -7.59232703E-01    1.50424832E-01    8.21587793E+00    8.36630276E+00   
                   9.00000000E+01    1.44000000E+02    1.22911310E-01    4.61225166E-03   -3.64110260E-01   -6.97804664E-01    1.90109871E-01    7.78496250E+00    7.97507237E+00   
                   9.00000000E+01    1.46000000E+02    1.35004603E-01   -3.71982270E-02   -4.31704099E-01   -6.24727747E-01    2.46425912E-01    7.24643767E+00    7.49286358E+00   
                   9.00000000E+01    1.48000000E+02    1.37141094E-01   -7.92121361E-02   -4.80169218E-01   -5.44995077E-01    3.15192752E-01    6.62979234E+00    6.94498509E+00   
                   9.00000000E+01    1.50000000E+02    1.30425527E-01   -1.19067037E-01   -5.09983046E-01   -4.63152625E-01    3.91917168E-01    5.96391229E+00    6.35582946E+00   
                   9.00000000E+01    1.52000000E+02    1.16414264E-01   -1.55010683E-01   -5.22567177E-01   -3.83056571E-01    4.72251653E-01    5.27547285E+00    5.74772450E+00   
                   9.00000000E+01    1.54000000E+02    9.68839738E-02   -1.85922168E-01   -5.19980991E-01   -3.07745302E-01    5.52336684E-01    4.58782361E+00    5.14016029E+00   
                   9.00000000E+01    1.56000000E+02    7.36363899E-02   -2.11265799E-01   -5.04633385E-01   -2.39409682E-01    6.29016666E-01    3.92035388E+00    4.54937055E+00   
                   9.00000000E+01    1.58000000E+02    4.83511239E-02   -2.31000955E-01   -4.79035505E-01   -1.79438688E-01    6.99937701E-01    3.28828314E+00    3.98822084E+00   
                   9.00000000E+01    1.60000000E+02    2.24892427E-02   -2.45469721E-01   -4.45606578E-01   -1.28515702E-01    7.63547127E-01    2.70279394E+00    3.46634107E+00   
                   9.00000000E+01    1.62000000E+02   -2.75649351E-03   -2.55280203E-01   -4.06535908E-01   -8.67423940E-02    8.19020499E-01    2.17141465E+00    2.99043515E+00   
                   9.00000000E+01    1.64000000E+02   -2.64729494E-02   -2.61198403E-01   -3.63697491E-01   -5.37709163E-02    8.66142404E-01    1.69856083E+00    2.56470324E+00   
                   9.00000000E+01    1.66000000E+02   -4.80094752E-02   -2.64056449E-01   -3.18609576E-01   -2.89300131E-02    9.05164696E-01    1.28615556E+00    2.19132026E+00   
                   9.00000000E+01    1.68000000E+02   -6.69422740E-02   -2.64680639E-01   -2.72429600E-01   -1.13354761E-02    9.36660936E-01    9.34264161E-01    1.87092510E+00   
                   9.00000000E+01    1.70000000E+02   -8.30290500E-02   -2.63839322E-01   -2.25974719E-01    2.02394033E-05    9.61390322E-01    6.41696361E-01    1.60308668E+00   
                   9.00000000E+01    1.72000000E+02   -9.61609455E-02   -2.62208413E-01   -1.79759148E-01    6.20095484E-03    9.80179161E-01    4.06544749E-01    1.38672391E+00   
                   9.00000000E+01    1.74000000E+02   -1.06316872E-01   -2.60351092E-01   -1.34041163E-01    8.28144401E-03    9.93823593E-01    2.26642230E-01    1.22046582E+00   
                   9.00000000E+01    1.76000000E+02   -1.13523619E-01   -2.58707784E-01   -8.88745242E-02    7.32136834E-03    1.00301414E+00    9.99313415E-02    1.10294549E+00   
                   9.00000000E+01    1.78000000E+02   -1.17823738E-01   -2.57592687E-01   -4.41609560E-02    4.35504609E-03    1.00828066E+00    2.47451499E-02    1.03302581E+00   
                   9.00000000E+01    1.80000000E+02   -1.19252239E-01   -2.57193704E-01    2.98090919E-04    3.93186874E-04    1.00995541E+00    3.05933463E-06    1.00995847E+00   
                   9.00000000E+01    1.82000000E+02   -1.17822517E-01   -2.57573371E-01    4.47508703E-02   -3.56741300E-03    1.00815199E+00    2.53258465E-02    1.03347784E+00   
                   9.00000000E+01    1.84000000E+02   -1.13521645E-01   -2.58669348E-01    8.94455987E-02   -6.53021192E-03    1.00275862E+00    1.01073314E-01    1.10383193E+00   
                   9.00000000E+01    1.86000000E+02   -1.06315059E-01   -2.60293964E-01    1.34580732E-01   -7.48526413E-03    9.93444973E-01    2.28305853E-01    1.22175083E+00   
                   9.00000000E+01    1.88000000E+02   -9.61605894E-02   -2.62133305E-01    1.80254453E-01   -5.39952174E-03    9.79683409E-01    4.08668712E-01    1.38835212E+00   
                   9.00000000E+01    1.90000000E+02   -8.30317438E-02   -2.63747316E-01    2.26413003E-01    7.84910844E-04    9.60785960E-01    6.44195687E-01    1.60498165E+00   
                   9.00000000E+01    1.92000000E+02   -6.69497744E-02   -2.64573270E-01    2.72798325E-01    1.21405746E-02    9.35959464E-01    9.37028007E-01    1.87298747E+00   
                   9.00000000E+01    1.94000000E+02   -4.80235292E-02   -2.63935781E-01    3.18896794E-01    2.97286493E-02    9.04381029E-01    1.28904520E+00    2.19342623E+00   
                   9.00000000E+01    1.96000000E+02   -2.64950780E-02   -2.61067077E-01    3.63892379E-01    5.45537299E-02    8.65295243E-01    1.70140833E+00    2.56670357E+00   
                   9.00000000E+01    1.98000000E+02   -2.78773668E-03   -2.55141429E-01    4.06629470E-01    8.74969230E-02    8.18132555E-01    2.17402280E+00    2.99215536E+00   
                   9.00000000E+01    2.00000000E+02    2.24486028E-02   -2.45327187E-01    4.45592489E-01    1.29226451E-01    7.62645094E-01    2.70493818E+00    3.46758328E+00   
                   9.00000000E+01    2.02000000E+02    4.83018355E-02   -2.30858640E-01    4.78911041E-01    1.80087479E-01    6.99051854E-01    3.28971605E+00    3.98876790E+00   
                   9.00000000E+01    2.04000000E+02    7.35804616E-02   -2.11127663E-01    5.04400360E-01    2.39976356E-01    6.28179979E-01    3.92081287E+00    4.54899284E+00   
                   9.00000000E+01    2.06000000E+02    9.68248109E-02   -1.85791727E-01    5.19646575E-01    3.08208788E-01    5.51583368E-01    4.58704220E+00    5.13862557E+00   
                   9.00000000E+01    2.08000000E+02    1.16356656E-01   -1.54890491E-01    5.22144461E-01    3.83396326E-01    4.71615079E-01    5.27319571E+00    5.74481078E+00   
                   9.00000000E+01    2.10000000E+02    1.30375431E-01   -1.18958117E-01    5.09491178E-01    4.63350388E-01    3.91427199E-01    5.95991345E+00    6.35134065E+00   
                   9.00000000E+01    2.12000000E+02    1.37105175E-01   -7.91134440E-02    4.79632975E-01    5.45036784E-01    3.14872607E-01    6.62389589E+00    6.93876850E+00   
                   9.00000000E+01    2.14000000E+02    1.34989513E-01   -3.71062468E-02    4.31152772E-01    6.24605425E-01    2.46288828E-01    7.23853924E+00    7.48482807E+00   
                   9.00000000E+01    2.16000000E+02    1.22922753E-01    4.70365286E-03    3.63575825E-01    6.97518020E-01    1.90155922E-01    7.77504935E+00    7.96520528E+00   
                   9.00000000E+01    2.18000000E+02    1.00494122E-01    4.34552079E-02    2.77659383E-01    7.58790110E-01    1.50638408E-01    8.20404508E+00    8.35468349E+00   
                   9.00000000E+01    2.20000000E+02    6.82111847E-02    7.59960892E-02    1.75622542E-01    8.03351956E-01    1.31044265E-01    8.49760152E+00    8.62864579E+00   
                   9.00000000E+01    2.22000000E+02    2.76596875E-02    9.91936607E-02    6.12668041E-02    8.26515696E-01    1.33259331E-01    8.63161147E+00    8.76487080E+00   
                   9.00000000E+01    2.24000000E+02   -1.84463799E-02    1.10328464E-01   -6.00610627E-02    8.24515200E-01    1.57238459E-01    8.58826792E+00    8.74550638E+00   
                   9.00000000E+01    2.26000000E+02   -6.63661094E-02    1.07530180E-01   -1.81702074E-01    7.95062920E-01    2.00649754E-01    8.35840443E+00    8.55905418E+00   
                   9.00000000E+01    2.28000000E+02   -1.11611104E-01    9.01950965E-02   -2.96131685E-01    7.37848686E-01    2.58769142E-01    7.94338708E+00    8.20215622E+00   
                   9.00000000E+01    2.30000000E+02   -1.49404220E-01    5.93087630E-02   -3.95607560E-01    6.54893990E-01    3.24704339E-01    7.35624629E+00    7.68095063E+00   
                   9.00000000E+01    2.32000000E+02   -1.75284726E-01    1.75932283E-02   -4.72969174E-01    5.50676480E-01    3.89987972E-01    6.62177894E+00    7.01176691E+00   
                   9.00000000E+01    2.34000000E+02   -1.85789355E-01   -3.05901858E-02   -5.22502131E-01    4.31957040E-01    4.45521116E-01    5.77544564E+00    6.22096676E+00   
                   9.00000000E+01    2.36000000E+02   -1.79105116E-01   -7.96218438E-02   -5.40748867E-01    3.07276902E-01    4.82778352E-01    4.86102944E+00    5.34380779E+00   
                   9.00000000E+01    2.38000000E+02   -1.55569346E-01   -1.23281177E-01   -5.27131155E-01    1.86142238E-01    4.95115883E-01    3.92719423E+00    4.42231011E+00   
                   9.00000000E+01    2.40000000E+02   -1.17893939E-01   -1.55615945E-01   -4.84255904E-01    7.79717509E-02    4.78971027E-01    3.02325985E+00    3.50223088E+00   
                   9.00000000E+01    2.42000000E+02   -7.10195263E-02   -1.71901659E-01   -4.17808156E-01   -9.06144086E-03    4.34720442E-01    2.19466341E+00    2.62938385E+00   
                   9.00000000E+01    2.44000000E+02   -2.15618333E-02   -1.69525978E-01   -3.35992903E-01   -6.91214938E-02    3.66987911E-01    1.47867241E+00    1.84566032E+00   
                   9.00000000E+01    2.46000000E+02    2.31105358E-02   -1.48616861E-01   -2.48563112E-01   -9.95488610E-02    2.84264726E-01    9.00928300E-01    1.18519303E+00   
                   9.00000000E+01    2.48000000E+02    5.60439042E-02   -1.12254623E-01   -1.65552013E-01   -1.01281280E-01    1.97820053E-01    4.73316956E-01    6.71137009E-01   
                   9.00000000E+01    2.50000000E+02    7.19183957E-02   -6.61694472E-02   -9.58965849E-02   -7.87486460E-02    1.20017025E-01    1.93490745E-01    3.13507770E-01   
                   9.00000000E+01    2.52000000E+02    6.80836500E-02   -1.79200240E-02   -4.61791374E-02   -3.92205165E-02    6.22853498E-02    4.61281513E-02    1.08413501E-01   
                   9.00000000E+01    2.54000000E+02    4.51845234E-02    2.43411506E-02   -1.97121310E-02    8.31371622E-03    3.31014886E-02    5.75145174E-03    3.88529404E-02   
                   9.00000000E+01    2.56000000E+02    7.21009066E-03    5.33090670E-02   -1.61430469E-02    5.45568787E-02    3.63650914E-02    4.06779823E-02    7.70430737E-02   
                   9.00000000E+01    2.58000000E+02   -3.90947921E-02    6.39005160E-02   -3.16669786E-02    9.13662416E-02    7.05184345E-02    1.17502950E-01    1.88021384E-01   
                   9.00000000E+01    2.60000000E+02   -8.53842885E-02    5.42762560E-02   -5.98208376E-02    1.13002620E-01    1.28634254E-01    2.05436595E-01    3.34070849E-01   
                   9.00000000E+01    2.62000000E+02   -1.23233162E-01    2.62785787E-02   -9.27182924E-02    1.16935838E-01    1.99515964E-01    2.79861518E-01    4.79377482E-01   
                   9.00000000E+01    2.64000000E+02   -1.45731951E-01   -1.48375817E-02   -1.22494610E-01    1.04058815E-01    2.69648619E-01    3.24629144E-01    5.94277763E-01   
                   9.00000000E+01    2.66000000E+02   -1.48829602E-01   -6.13553520E-02   -1.42686921E-01    7.82790027E-02    3.25654098E-01    3.32847466E-01    6.58501563E-01   
                   9.00000000E+01    2.68000000E+02   -1.32137401E-01   -1.04554408E-01   -1.49289503E-01    4.55807569E-02    3.56783349E-01    3.06179131E-01    6.62962480E-01   
                   9.00000000E+01    2.70000000E+02   -9.90153533E-02   -1.36386934E-01   -1.41293341E-01    1.27574096E-02    3.56953237E-01    2.52917808E-01    6.09871045E-01   
                   9.00000000E+01    2.72000000E+02   -5.59138729E-02   -1.51027050E-01   -1.20628983E-01   -1.39267142E-02    3.25915495E-01    1.85294968E-01    5.11210463E-01   
                   9.00000000E+01    2.74000000E+02   -1.11044717E-02   -1.45973242E-01   -9.15562479E-02   -2.98798224E-02    2.69316131E-01    1.16557490E-01    3.85873621E-01   
                   9.00000000E+01    2.76000000E+02    2.69350954E-02   -1.22479797E-01   -5.96551464E-02   -3.29198881E-02    1.97628799E-01    5.83388167E-02    2.55967616E-01   
                   9.00000000E+01    2.78000000E+02    5.11445960E-02   -8.52397082E-02   -3.06448126E-02   -2.34894261E-02    1.24175566E-01    1.87346701E-02    1.42910236E-01   
                   9.00000000E+01    2.80000000E+02    5.71828699E-02   -4.14029662E-02   -9.27672475E-03   -4.34662687E-03    6.26318746E-02    1.31885049E-03    6.39507251E-02   
                   9.00000000E+01    2.82000000E+02    4.41551794E-02    8.47764338E-04    1.48609743E-03    2.01611411E-02    2.45094313E-02    5.13562557E-03    2.96450569E-02   
                   9.00000000E+01    2.84000000E+02    1.46460317E-02    3.38586756E-02    8.69269849E-04    4.50595778E-02    1.71017768E-02    2.55238216E-02    4.26255983E-02   
                   9.00000000E+01    2.86000000E+02   -2.59116568E-02    5.18860212E-02   -9.76943119E-03    6.57333373E-02    4.22679069E-02    5.54970311E-02    9.77649380E-02   
                   9.00000000E+01    2.88000000E+02   -7.03652795E-02    5.20371007E-02   -2.73930399E-02    7.87412109E-02    9.62474964E-02    8.73432744E-02    1.83590771E-01   
                   9.00000000E+01    2.90000000E+02   -1.11214182E-01    3.46203412E-02   -4.80019928E-02    8.23229287E-02    1.70489989E-01    1.14118427E-01    2.84608416E-01   
                   9.00000000E+01    2.92000000E+02   -1.41941964E-01    2.88569422E-03   -6.74454075E-02    7.65383813E-02    2.53285860E-01    1.30778305E-01    3.84064165E-01   
                   9.00000000E+01    2.94000000E+02   -1.58061858E-01   -3.77403613E-02   -8.21618207E-02    6.30604161E-02    3.31851282E-01    1.34801730E-01    4.66653012E-01   
                   9.00000000E+01    2.96000000E+02   -1.57709934E-01   -8.07327437E-02   -8.97212252E-02    4.47069455E-02    3.94460875E-01    1.26274548E-01    5.20735423E-01   
                   9.00000000E+01    2.98000000E+02   -1.41727324E-01   -1.19627856E-01   -8.90976964E-02    2.48354799E-02    4.32251209E-01    1.07507821E-01    5.39759030E-01   
                   9.00000000E+01    3.00000000E+02   -1.13277263E-01   -1.49048333E-01   -8.06642496E-02    6.72985123E-03    4.40415400E-01    8.23350118E-02    5.22750412E-01   
                   9.00000000E+01    3.02000000E+02   -7.71235701E-02   -1.65429657E-01   -6.59549194E-02   -6.91128556E-03    4.18648842E-01    5.52646015E-02    4.73913444E-01   
                   9.00000000E+01    3.04000000E+02   -3.87411587E-02   -1.67364252E-01   -4.72740018E-02   -1.43125189E-02    3.70854584E-01    3.06579161E-02    4.01512500E-01   
                   9.00000000E+01    3.06000000E+02   -3.43310445E-03   -1.55560834E-01   -2.72453430E-02   -1.47591900E-02    3.04243889E-01    1.20655053E-02    3.16309394E-01   
                   9.00000000E+01    3.08000000E+02    2.44009973E-02   -1.32485320E-01   -8.38734316E-03   -8.54803559E-03    2.28051586E-01    1.80222411E-03    2.29853810E-01   
                   9.00000000E+01    3.10000000E+02    4.17520969E-02   -1.01793458E-01    7.22232553E-03    3.20555841E-03    1.52117746E-01    7.84613905E-04    1.52902360E-01   
                   9.00000000E+01    3.12000000E+02    4.72096322E-02   -6.76806823E-02    1.81569785E-02    1.88448457E-02    8.55697473E-02    8.60550183E-03    9.41752491E-02   
                   9.00000000E+01    3.14000000E+02    4.09090293E-02   -3.42643397E-02    2.37194092E-02    3.64733733E-02    3.57839173E-02    2.37871008E-02    5.95710181E-02   
                   9.00000000E+01    3.16000000E+02    2.42762359E-02   -5.08498174E-03    2.39049240E-02    5.42304240E-02    7.73073908E-03    4.41379226E-02    5.18686617E-02   
                   9.00000000E+01    3.18000000E+02   -3.52878259E-04    1.72238677E-02    1.92798734E-02    7.05056835E-02    3.72952467E-03    6.71391640E-02    7.08686887E-02   
                   9.00000000E+01    3.20000000E+02   -3.01579101E-02    3.10852440E-02    1.08123412E-02    8.40764232E-02    2.35718966E-02    9.02988185E-02    1.13870715E-01   
                   9.00000000E+01    3.22000000E+02   -6.22352133E-02    3.59657617E-02   -3.10206128E-04    9.41664777E-02    6.49273933E-02    1.11431308E-01    1.76358701E-01   