##File Type: Far field
##File Format: 5
##Source: Thin_wire_XY_rad_theta450.04
##Date: 2020-09-16 11:26:48
** File exported by POSTFEKO version 2018-319328 (x64)

#Configuration Name: StandardConfiguration1
#Request Name: FarField1
#Frequency: 3.00000000E+08
#Coordinate System: Spherical
#No. of Theta Samples: 1
#No. of Phi Samples: 181
#Result Type: RCS
#Incident Wave Direction: (4.50000000E+01, 0.00000000E+00)
#No. of Header Lines: 1
#                 "Theta"           "Phi"             "Re(Etheta)"      "Im(Etheta)"      "Re(Ephi)"        "Im(Ephi)"        "RCS(Theta)"      "RCS(Phi)"        "RCS(Total)"      
                   9.00000000E+01    0.00000000E+00   -2.49498198E-17    1.70968388E-17    0.00000000E+00    0.00000000E+00    1.14956581E-32    0.00000000E+00    1.14956581E-32   
                   9.00000000E+01    2.00000000E+00   -2.48779517E-17    1.71736954E-17    1.41878821E-02   -9.79414896E-03    1.14837564E-32    3.73499366E-03    3.73499366E-03   
                   9.00000000E+01    4.00000000E+00   -2.46602298E-17    1.74018119E-17    2.81617729E-02   -1.98727213E-02    1.14473352E-32    1.49289803E-02    1.49289803E-02   
                   9.00000000E+01    6.00000000E+00   -2.42904645E-17    1.77737107E-17    4.16941554E-02   -3.05082619E-02    1.13842704E-32    3.35416116E-02    3.35416116E-02   
                   9.00000000E+01    8.00000000E+00   -2.37588820E-17    1.82765964E-17    5.45315288E-02   -4.19485539E-02    1.12911158E-32    5.94812666E-02    5.94812666E-02   
                   9.00000000E+01    1.00000000E+01   -2.30529582E-17    1.88919121E-17    6.63841774E-02   -5.44018703E-02    1.11632502E-32    9.25691953E-02    9.25691953E-02   
                   9.00000000E+01    1.20000000E+01   -2.21586253E-17    1.95948295E-17    7.69195040E-02   -6.80197684E-02    1.09950970E-32    1.32491002E-01    1.32491002E-01   
                   9.00000000E+01    1.40000000E+01   -2.10618700E-17    2.03537874E-17    8.57604655E-02   -8.28772697E-02    1.07804258E-32    1.78737763E-01    1.78737763E-01   
                   9.00000000E+01    1.60000000E+01   -1.97507259E-17    2.11302247E-17    9.24908229E-02   -9.89508886E-02    1.05127438E-32    2.30540507E-01    2.30540507E-01   
                   9.00000000E+01    1.80000000E+01   -1.82176297E-17    2.18786836E-17    9.66689614E-02   -1.16095763E-01    1.01857826E-32    2.86803713E-01    2.86803713E-01   
                   9.00000000E+01    2.00000000E+01   -1.64620539E-17    2.25474734E-17    9.78518481E-02   -1.34024099E-01    9.79407565E-33    3.46045717E-01    3.46045717E-01   
                   9.00000000E+01    2.20000000E+01   -1.44932612E-17    2.30800888E-17    9.56301461E-02   -1.52288173E-01    9.33361045E-33    4.06356370E-01    4.06356370E-01   
                   9.00000000E+01    2.40000000E+01   -1.23329397E-17    2.34175425E-17    8.96744849E-02   -1.70272142E-01    8.80252522E-33    4.65384421E-01    4.65384421E-01   
                   9.00000000E+01    2.60000000E+01   -1.00173937E-17    2.35017084E-17    7.97913224E-02   -1.87197632E-01    8.20179959E-33    5.20368489E-01    5.20368489E-01   
                   9.00000000E+01    2.80000000E+01   -7.59888587E-18    2.32796612E-17    6.59847278E-02   -2.02148333E-01    7.53587268E-33    5.68225303E-01    5.68225303E-01   
                   9.00000000E+01    3.00000000E+01   -5.14568804E-18    2.27088434E-17    4.85178972E-02   -2.14118175E-01    6.81310507E-33    6.05706340E-01    6.05706340E-01   
                   9.00000000E+01    3.20000000E+01   -2.74040946E-18    2.17626959E-17    2.79655796E-02   -2.22085938E-01    6.04599225E-33    6.29628420E-01    6.29628420E-01   
                   9.00000000E+01    3.40000000E+01   -4.76265629E-19    2.04361841E-17    5.24633263E-03   -2.25116013E-01    5.25103952E-33    6.37174594E-01    6.37174594E-01   
                   9.00000000E+01    3.60000000E+01    1.54885622E-18    1.87504536E-17   -1.83777055E-02   -2.22480506E-01    4.44822460E-33    6.26249045E-01    6.26249045E-01   
                   9.00000000E+01    3.80000000E+01    3.24038624E-18    1.67557220E-17   -4.13452629E-02   -2.13792332E-01    3.66000976E-33    5.95854468E-01    5.95854468E-01   
                   9.00000000E+01    4.00000000E+01    4.51658892E-18    1.45314945E-17   -6.18932430E-02   -1.99132872E-01    2.90991790E-33    5.46444532E-01    5.46444532E-01   
                   9.00000000E+01    4.20000000E+01    5.31866424E-18    1.21833419E-17   -7.82094363E-02   -1.79152557E-01    2.22075426E-33    4.80190612E-01    4.80190612E-01   
                   9.00000000E+01    4.40000000E+01    5.62010621E-18    9.83581945E-18   -8.86341022E-02   -1.55119671E-01    1.61262900E-33    4.01094880E-01    4.01094880E-01   
                   9.00000000E+01    4.60000000E+01    5.43373712E-18    7.62164990E-18   -9.18926095E-02   -1.28893482E-01    1.10100314E-33    3.14885368E-01    3.14885368E-01   
                   9.00000000E+01    4.80000000E+01    4.81481184E-18    5.66797506E-18   -8.73295107E-02   -1.02803911E-01    6.95025278E-34    2.28646214E-01    2.28646214E-01   
                   9.00000000E+01    5.00000000E+01    3.85887582E-18    4.08121592E-18   -7.51045791E-02   -7.94319430E-02    3.96434385E-34    1.50169780E-01    1.50169780E-01   
                   9.00000000E+01    5.20000000E+01    2.69370072E-18    2.93270407E-18   -5.63065155E-02   -6.13024104E-02    1.99262133E-34    8.70649578E-02    8.70649578E-02   
                   9.00000000E+01    5.40000000E+01    1.46557327E-18    2.24759207E-18   -3.29431891E-02   -5.05214253E-02    9.04725294E-35    4.57122858E-02    4.57122858E-02   
                   9.00000000E+01    5.60000000E+01    3.21346012E-19    1.99945119E-18   -7.78044830E-03   -4.84108283E-02    5.15355445E-35    3.02113604E-02    3.02113604E-02   
                   9.00000000E+01    5.80000000E+01   -6.11244348E-19    2.11232401E-18    1.59751438E-02   -5.52065307E-02    6.07650921E-35    4.15062980E-02    4.15062980E-02   
                   9.00000000E+01    6.00000000E+01   -1.24169599E-18    2.47083122E-18    3.51232788E-02   -6.98912570E-02    9.60927220E-35    7.68864906E-02    7.68864906E-02   
                   9.00000000E+01    6.20000000E+01   -1.52978803E-18    2.93739143E-18    4.69868184E-02   -9.02207854E-02    1.37834485E-34    1.30031164E-01    1.30031164E-01   
                   9.00000000E+01    6.40000000E+01   -1.49058403E-18    3.37399650E-18    4.99107199E-02   -1.12974908E-01    1.70974182E-34    1.91692567E-01    1.91692567E-01   
                   9.00000000E+01    6.60000000E+01   -1.18974467E-18    3.66467973E-18    4.36405058E-02   -1.34422520E-01    1.86552420E-34    2.50999525E-01    2.50999525E-01   
                   9.00000000E+01    6.80000000E+01   -7.29418860E-19    3.73421317E-18    2.94840118E-02   -1.50941511E-01    1.81915806E-34    2.97227925E-01    2.97227925E-01   
                   9.00000000E+01    7.00000000E+01   -2.27111259E-19    3.55895241E-18    1.01904166E-02   -1.59689167E-01    1.59815605E-34    3.21755319E-01    3.21755319E-01   
                   9.00000000E+01    7.20000000E+01    2.08257340E-19    3.16717667E-18   -1.04675109E-02   -1.59189858E-01    1.26598382E-34    3.19826443E-01    3.19826443E-01   
                   9.00000000E+01    7.40000000E+01    4.97899257E-19    2.62852730E-18   -2.83572547E-02   -1.49704618E-01    8.99382611E-35    2.91735916E-01    2.91735916E-01   
                   9.00000000E+01    7.60000000E+01    6.07355651E-19    2.03473793E-18   -3.97824167E-02   -1.33277417E-01    5.66622594E-35    2.43102855E-01    2.43102855E-01   
                   9.00000000E+01    7.80000000E+01    5.49912737E-19    1.47611291E-18   -4.22511376E-02   -1.13413357E-01    3.11811030E-35    1.84069032E-01    1.84069032E-01   
                   9.00000000E+01    8.00000000E+01    3.78375549E-19    1.01948711E-18   -3.50447880E-02   -9.44239389E-02    1.48600101E-35    1.27473482E-01    1.27473482E-01   
                   9.00000000E+01    8.20000000E+01    1.67314956E-19    6.93236296E-19   -1.94424674E-02   -8.05560028E-02    6.39088986E-36    8.62967746E-02    8.62967746E-02   
                   9.00000000E+01    8.40000000E+01   -9.50306558E-21    4.83218107E-19    1.47659928E-03   -7.50830882E-02    2.93537910E-36    7.08699380E-02    7.08699380E-02   
                   9.00000000E+01    8.60000000E+01   -1.00357021E-19    3.40668825E-19    2.34381418E-02   -7.95623876E-02    1.58495586E-36    8.64505981E-02    8.64505981E-02   
                   9.00000000E+01    8.80000000E+01   -8.95373875E-20    1.99794577E-19    4.18735477E-02   -9.34370320E-02    6.02366672E-37    1.31744233E-01    1.31744233E-01   
                   9.00000000E+01    9.00000000E+01   -1.98444932E-34    4.27783832E-34    5.29271246E-02   -1.14093960E-01    2.79450193E-66    1.98783800E-01    1.98783800E-01   
                   9.00000000E+01    9.20000000E+01    1.16204865E-19   -2.93770973E-19    5.43450071E-02   -1.37386551E-01    1.25418606E-36    2.74304320E-01    2.74304320E-01   
                   9.00000000E+01    9.40000000E+01    1.97124735E-19   -6.78758824E-19    4.60380095E-02   -1.58522497E-01    6.27780316E-36    3.42419528E-01    3.42419528E-01   
                   9.00000000E+01    9.60000000E+01    1.94226152E-19   -1.11421582E-18    3.01791242E-02   -1.73128373E-01    1.60749099E-35    3.88102466E-01    3.88102466E-01   
                   9.00000000E+01    9.80000000E+01    9.29443338E-20   -1.53400949E-18    1.08003924E-02   -1.78256208E-01    2.96795529E-35    4.00765737E-01    4.00765737E-01   
                   9.00000000E+01    1.00000000E+02   -7.59218330E-20   -1.86901563E-18   -7.03180887E-03   -1.73106472E-01    4.39695240E-35    3.77183347E-01    3.77183347E-01   
                   9.00000000E+01    1.02000000E+02   -2.38020769E-19   -2.07340133E-18   -1.82877166E-02   -1.59304484E-01    5.47346740E-35    3.23111035E-01    3.23111035E-01   
                   9.00000000E+01    1.04000000E+02   -2.91007226E-19   -2.14756242E-18   -1.90612711E-02   -1.40667536E-01    5.90205930E-35    2.53221012E-01    2.53221012E-01   
                   9.00000000E+01    1.06000000E+02   -1.30676845E-19   -2.15109584E-18   -7.44254289E-03   -1.22513082E-01    5.83618661E-35    1.89310447E-01    1.89310447E-01   
                   9.00000000E+01    1.08000000E+02    3.18399670E-19   -2.20157776E-18    1.60035273E-02   -1.10656552E-01    6.21824605E-35    1.57092016E-01    1.57092016E-01   
                   9.00000000E+01    1.10000000E+02    1.07514442E-18   -2.45841424E-18    4.82414197E-02   -1.10308337E-01    9.04745523E-35    1.82151602E-01    1.82151602E-01   
                   9.00000000E+01    1.12000000E+02    2.08398327E-18   -3.09468755E-18    8.42371791E-02   -1.25091095E-01    1.74924851E-34    2.85805569E-01    2.85805569E-01   
                   9.00000000E+01    1.14000000E+02    3.21120523E-18   -4.26279433E-18    1.17788819E-01   -1.56361701E-01    3.57931133E-34    4.81583377E-01    4.81583377E-01   
                   9.00000000E+01    1.16000000E+02    4.25700291E-18   -6.06107825E-18    1.42541497E-01   -2.02949161E-01    6.89375299E-34    7.72912724E-01    7.72912724E-01   
                   9.00000000E+01    1.18000000E+02    4.98107685E-18   -8.50834244E-18    1.52991753E-01   -2.61330284E-01    1.22148914E-33    1.15233611E+00    1.15233611E+00   
                   9.00000000E+01    1.20000000E+02    5.13689236E-18   -1.15312824E-17    1.45304892E-01   -3.26180038E-01    2.00255341E-33    1.60229933E+00    1.60229933E+00   
                   9.00000000E+01    1.22000000E+02    4.50813095E-18   -1.49670619E-17    1.17822014E-01   -3.91170842E-01    3.07041909E-33    2.09728522E+00    2.09728522E+00   
                   9.00000000E+01    1.24000000E+02    2.94080934E-18   -1.85801901E-17    7.12030463E-02   -4.49864641E-01    4.44688449E-33    2.60686932E+00    2.60686932E+00   
                   9.00000000E+01    1.26000000E+02    3.65802991E-19   -2.20902433E-17    8.22252790E-03   -4.96544987E-01    6.13380457E-33    3.09917529E+00    3.09917529E+00   
                   9.00000000E+01    1.28000000E+02   -3.19132193E-18   -2.52053155E-17   -6.67083081E-02   -5.26867546E-01    8.11149757E-33    3.54421175E+00    3.54421175E+00   
                   9.00000000E+01    1.30000000E+02   -7.61376228E-18   -2.76555910E-17   -1.48185233E-01   -5.38255601E-01    1.03396234E-32    3.91666069E+00    3.91666069E+00   
                   9.00000000E+01    1.32000000E+02   -1.27085268E-17   -2.92220369E-17   -2.30503176E-01   -5.30019919E-01    1.27603211E-32    4.19783166E+00    4.19783166E+00   
                   9.00000000E+01    1.34000000E+02   -1.82297343E-17   -2.97566326E-17   -3.08292032E-01   -5.03229095E-01    1.53030798E-32    4.37665954E+00    4.37665954E+00   
                   9.00000000E+01    1.36000000E+02   -2.39059994E-17   -2.91923609E-17   -3.77018995E-01   -4.60389645E-01    1.78906255E-32    4.44977631E+00    4.44977631E+00   
                   9.00000000E+01    1.38000000E+02   -2.94677585E-17   -2.75429973E-17   -4.33314959E-01   -4.05011896E-01    2.04450513E-32    4.42080508E+00    4.42080508E+00   
                   9.00000000E+01    1.40000000E+02   -3.46710840E-17   -2.48942041E-17   -4.75116479E-01   -3.41138645E-01    2.28934826E-32    4.29909668E+00    4.29909668E+00   
                   9.00000000E+01    1.42000000E+02   -3.93156317E-17   -2.13883956E-17   -5.01642400E-01   -2.72902294E-01    2.51727320E-32    4.09815433E+00    4.09815433E+00   
                   9.00000000E+01    1.44000000E+02   -4.32556085E-17   -1.72062195E-17   -5.13242498E-01   -2.04157643E-01    2.72326025E-32    3.83397712E+00    3.83397712E+00   
                   9.00000000E+01    1.46000000E+02   -4.64037847E-17   -1.25473807E-17   -5.11163677E-01   -1.38216426E-01    2.90377158E-32    3.52351085E+00    3.52351085E+00   
                   9.00000000E+01    1.48000000E+02   -4.87294587E-17   -7.61304677E-18   -4.97278812E-01   -7.76903121E-02    3.05679306E-32    3.18333816E+00    3.18333816E+00   
                   9.00000000E+01    1.50000000E+02   -5.02518219E-17   -2.59138595E-18   -4.73816662E-01   -2.44337776E-02    3.18175589E-32    2.82868046E+00    2.82868046E+00   
                   9.00000000E+01    1.52000000E+02   -5.10303951E-17    2.35293780E-18   -4.43121109E-01    2.04316742E-02    3.27936725E-32    2.47273213E+00    2.47273213E+00   
                   9.00000000E+01    1.54000000E+02   -5.11541403E-17    7.08514450E-18   -4.07456930E-01    5.64351431E-02    3.35138236E-32    2.12630626E+00    2.12630626E+00   
                   9.00000000E+01    1.56000000E+02   -5.07306056E-17    1.15029247E-17   -3.68869144E-01    8.36393321E-02    3.40034882E-32    1.79774477E+00    1.79774477E+00   
                   9.00000000E+01    1.58000000E+02   -4.98761047E-17    1.55358907E-17   -3.29094958E-01    1.02509675E-01    3.42934962E-32    1.49303217E+00    1.49303217E+00   
                   9.00000000E+01    1.60000000E+02   -4.87075583E-17    1.91427047E-17   -2.89521867E-01    1.13785864E-01    3.44176477E-32    1.21604937E+00    1.21604937E+00   
                   9.00000000E+01    1.62000000E+02   -4.73362764E-17    2.23067071E-17   -2.51182440E-01    1.18367002E-01    3.44106465E-32    9.68909463E-01    9.68909463E-01   
                   9.00000000E+01    1.64000000E+02   -4.58636895E-17    2.50307855E-17   -2.14775417E-01    1.17216854E-01    3.43064209E-32    7.52326875E-01    7.52326875E-01   
                   9.00000000E+01    1.66000000E+02   -4.43788356E-17    2.73320807E-17   -1.80703309E-01    1.11291731E-01    3.41368434E-32    5.65983492E-01    5.65983492E-01   
                   9.00000000E+01    1.68000000E+02   -4.29572980E-17    2.92369625E-17   -1.49118188E-01    1.01490621E-01    3.39308271E-32    4.08866724E-01    4.08866724E-01   
                   9.00000000E+01    1.70000000E+02   -4.16612340E-17    3.07765530E-17   -1.19969278E-01    8.86253355E-02    3.37137457E-32    2.79565024E-01    2.79565024E-01   
                   9.00000000E+01    1.72000000E+02   -4.05401393E-17    3.19829393E-17   -9.30479715E-02    7.34074346E-02    3.35071127E-32    1.76514486E-01    1.76514486E-01   
                   9.00000000E+01    1.74000000E+02   -3.96320206E-17    3.28861169E-17   -6.80276668E-02    5.64484416E-02    3.33284495E-32    9.81960077E-02    9.81960077E-02   
                   9.00000000E+01    1.76000000E+02   -3.89647040E-17    3.35116357E-17   -4.44973609E-02    3.82700033E-02    3.31912768E-32    4.32862242E-02    4.32862242E-02   
                   9.00000000E+01    1.78000000E+02   -3.85570611E-17    3.38788848E-17   -2.19890706E-02    1.93211092E-02    3.31051709E-32    1.07671740E-02    1.07671740E-02   
                   9.00000000E+01    1.80000000E+02   -3.84199926E-17    3.39999373E-17   -7.68399853E-17    6.79998747E-17    3.30758382E-32    1.32303353E-31    1.65379191E-31   
                   9.00000000E+01    1.82000000E+02   -3.85570596E-17    3.38788894E-17    2.19890697E-02   -1.93211118E-02    3.31051734E-32    1.07671748E-02    1.07671748E-02   
                   9.00000000E+01    1.84000000E+02   -3.89647012E-17    3.35116449E-17    4.44973577E-02   -3.82700137E-02    3.31912818E-32    4.32862306E-02    4.32862306E-02   
                   9.00000000E+01    1.86000000E+02   -3.96320169E-17    3.28861301E-17    6.80276603E-02   -5.64484643E-02    3.33284567E-32    9.81960288E-02    9.81960288E-02   
                   9.00000000E+01    1.88000000E+02   -4.05401351E-17    3.19829561E-17    9.30479617E-02   -7.34074730E-02    3.35071218E-32    1.76514534E-01    1.76514534E-01   
                   9.00000000E+01    1.90000000E+02   -4.16612298E-17    3.07765726E-17    1.19969266E-01   -8.86253918E-02    3.37137564E-32    2.79565113E-01    2.79565113E-01   
                   9.00000000E+01    1.92000000E+02   -4.29572944E-17    2.92369840E-17    1.49118175E-01   -1.01490696E-01    3.39308390E-32    4.08866867E-01    4.08866867E-01   
                   9.00000000E+01    1.94000000E+02   -4.43788330E-17    2.73321032E-17    1.80703299E-01   -1.11291822E-01    3.41368560E-32    5.65983701E-01    5.65983701E-01   
                   9.00000000E+01    1.96000000E+02   -4.58636883E-17    2.50308079E-17    2.14775411E-01   -1.17216959E-01    3.43064337E-32    7.52327154E-01    7.52327154E-01   
                   9.00000000E+01    1.98000000E+02   -4.73362767E-17    2.23067284E-17    2.51182442E-01   -1.18367115E-01    3.44106589E-32    9.68909811E-01    9.68909811E-01   
                   9.00000000E+01    2.00000000E+02   -4.87075600E-17    1.91427240E-17    2.89521877E-01   -1.13785979E-01    3.44176590E-32    1.21604978E+00    1.21604978E+00   
                   9.00000000E+01    2.02000000E+02   -4.98761075E-17    1.55359071E-17    3.29094976E-01   -1.02509784E-01    3.42935061E-32    1.49303260E+00    1.49303260E+00   
                   9.00000000E+01    2.04000000E+02   -5.07306089E-17    1.15029376E-17    3.68869168E-01   -8.36394265E-02    3.40034962E-32    1.79774519E+00    1.79774519E+00   
                   9.00000000E+01    2.06000000E+02   -5.11541434E-17    7.08515369E-18    4.07456955E-01   -5.64352163E-02    3.35138293E-32    2.12630661E+00    2.12630661E+00   
                   9.00000000E+01    2.08000000E+02   -5.10303973E-17    2.35294320E-18    4.43121128E-01   -2.04317211E-02    3.27936756E-32    2.47273236E+00    2.47273236E+00   
                   9.00000000E+01    2.10000000E+02   -5.02518224E-17   -2.59138402E-18    4.73816666E-01    2.44337594E-02    3.18175593E-32    2.82868050E+00    2.82868050E+00   
                   9.00000000E+01    2.12000000E+02   -4.87294568E-17   -7.61304768E-18    4.97278793E-01    7.76903213E-02    3.05679285E-32    3.18333794E+00    3.18333794E+00   
                   9.00000000E+01    2.14000000E+02   -4.64037802E-17   -1.25473836E-17    5.11163626E-01    1.38216458E-01    2.90377113E-32    3.52351031E+00    3.52351031E+00   
                   9.00000000E+01    2.16000000E+02   -4.32556011E-17   -1.72062234E-17    5.13242410E-01    2.04157689E-01    2.72325962E-32    3.83397622E+00    3.83397622E+00   
                   9.00000000E+01    2.18000000E+02   -3.93156218E-17   -2.13883994E-17    5.01642273E-01    2.72902343E-01    2.51727242E-32    4.09815306E+00    4.09815306E+00   
                   9.00000000E+01    2.20000000E+02   -3.46710720E-17   -2.48942069E-17    4.75116315E-01    3.41138684E-01    2.28934740E-32    4.29909505E+00    4.29909505E+00   
                   9.00000000E+01    2.22000000E+02   -2.94677453E-17   -2.75429985E-17    4.33314766E-01    4.05011914E-01    2.04450424E-32    4.42080315E+00    4.42080315E+00   
                   9.00000000E+01    2.24000000E+02   -2.39059860E-17   -2.91923602E-17    3.77018784E-01    4.60389633E-01    1.78906169E-32    4.44977418E+00    4.44977418E+00   
                   9.00000000E+01    2.26000000E+02   -1.82297218E-17   -2.97566299E-17    3.08291821E-01    5.03229050E-01    1.53030720E-32    4.37665732E+00    4.37665732E+00   
                   9.00000000E+01    2.28000000E+02   -1.27085159E-17   -2.92220327E-17    2.30502980E-01    5.30019842E-01    1.27603146E-32    4.19782950E+00    4.19782950E+00   
                   9.00000000E+01    2.30000000E+02   -7.61375376E-18   -2.76555859E-17    1.48185067E-01    5.38255501E-01    1.03396182E-32    3.91665873E+00    3.91665873E+00   
                   9.00000000E+01    2.32000000E+02   -3.19131592E-18   -2.52053104E-17    6.67081825E-02    5.26867438E-01    8.11149381E-33    3.54421011E+00    3.54421011E+00   
                   9.00000000E+01    2.34000000E+02    3.65806667E-19   -2.20902388E-17   -8.22261052E-03    4.96544887E-01    6.13380214E-33    3.09917407E+00    3.09917407E+00   
                   9.00000000E+01    2.36000000E+02    2.94081121E-18   -1.85801870E-17   -7.12030916E-02    4.49864566E-01    4.44688317E-33    2.60686855E+00    2.60686855E+00   
                   9.00000000E+01    2.38000000E+02    4.50813176E-18   -1.49670604E-17   -1.17822035E-01    3.91170802E-01    3.07041860E-33    2.09728489E+00    2.09728489E+00   
                   9.00000000E+01    2.40000000E+02    5.13689290E-18   -1.15312823E-17   -1.45304908E-01    3.26180036E-01    2.00255345E-33    1.60229936E+00    1.60229936E+00   
                   9.00000000E+01    2.42000000E+02    4.98107774E-18   -8.50834335E-18   -1.52991781E-01    2.61330312E-01    1.22148945E-33    1.15233640E+00    1.15233640E+00   
                   9.00000000E+01    2.44000000E+02    4.25700450E-18   -6.06107948E-18   -1.42541551E-01    2.02949202E-01    6.89375657E-34    7.72913126E-01    7.72913126E-01   
                   9.00000000E+01    2.46000000E+02    3.21120751E-18   -4.26279519E-18   -1.17788903E-01    1.56361732E-01    3.57931408E-34    4.81583748E-01    4.81583748E-01   
                   9.00000000E+01    2.48000000E+02    2.08398589E-18   -3.09468751E-18   -8.42372852E-02    1.25091094E-01    1.74924985E-34    2.85805788E-01    2.85805788E-01   
                   9.00000000E+01    2.50000000E+02    1.07514688E-18   -2.45841307E-18   -4.82415302E-02    1.10308285E-01    9.04745461E-35    1.82151589E-01    1.82151589E-01   
                   9.00000000E+01    2.52000000E+02    3.18401458E-19   -2.20157557E-18   -1.60036172E-02    1.10656442E-01    6.21823535E-35    1.57091746E-01    1.57091746E-01   
                   9.00000000E+01    2.54000000E+02   -1.30676068E-19   -2.15109303E-18    7.44249867E-03    1.22512922E-01    5.83617120E-35    1.89309947E-01    1.89309947E-01   
                   9.00000000E+01    2.56000000E+02   -2.91007516E-19   -2.14755954E-18    1.90612901E-02    1.40667348E-01    5.90204398E-35    2.53220355E-01    2.53220355E-01   
                   9.00000000E+01    2.58000000E+02   -2.38021892E-19   -2.07339887E-18    1.82878029E-02    1.59304295E-01    5.47345526E-35    3.23110319E-01    3.23110319E-01   
                   9.00000000E+01    2.60000000E+02   -7.59233635E-20   -1.86901389E-18    7.03195062E-03    1.73106311E-01    4.39694454E-35    3.77182673E-01    3.77182673E-01   
                   9.00000000E+01    2.62000000E+02    9.29428582E-20   -1.53400853E-18   -1.08002209E-02    1.78256095E-01    2.96795122E-35    4.00765188E-01    4.00765188E-01   
                   9.00000000E+01    2.64000000E+02    1.94225073E-19   -1.11421545E-18   -3.01789565E-02    1.73128315E-01    1.60748943E-35    3.88102089E-01    3.88102089E-01   
                   9.00000000E+01    2.66000000E+02    1.97124174E-19   -6.78758768E-19   -4.60378783E-02    1.58522484E-01    6.27779943E-36    3.42419325E-01    3.42419325E-01   
                   9.00000000E+01    2.68000000E+02    1.16204713E-19   -2.93770991E-19   -5.43449361E-02    1.37386559E-01    1.25418575E-36    2.74304251E-01    2.74304251E-01   
                   9.00000000E+01    2.70000000E+02    5.95334778E-34   -1.28335149E-33   -5.29271229E-02    1.14093959E-01    2.51505168E-65    1.98783796E-01    1.98783796E-01   
                   9.00000000E+01    2.72000000E+02   -8.95375174E-20    1.99794494E-19   -4.18736084E-02    9.34369932E-02    6.02366548E-37    1.31744206E-01    1.31744206E-01   
                   9.00000000E+01    2.74000000E+02   -1.00357465E-19    3.40668412E-19   -2.34382454E-02    7.95622911E-02    1.58495344E-36    8.64504662E-02    8.64504662E-02   
                   9.00000000E+01    2.76000000E+02   -9.50384119E-21    4.83217072E-19   -1.47671980E-03    7.50829274E-02    2.93536672E-36    7.08696390E-02    7.08696390E-02   
                   9.00000000E+01    2.78000000E+02    1.67313989E-19    6.93234419E-19    1.94423550E-02    8.05557847E-02    6.39085310E-36    8.62962782E-02    8.62962782E-02   
                   9.00000000E+01    2.80000000E+02    3.78374618E-19    1.01948433E-18    3.50447017E-02    9.44236809E-02    1.48599298E-35    1.27472794E-01    1.27472794E-01   
                   9.00000000E+01    2.82000000E+02    5.49912066E-19    1.47610932E-18    4.22510860E-02    1.13413081E-01    3.11809605E-35    1.84068191E-01    1.84068191E-01   
                   9.00000000E+01    2.84000000E+02    6.07355377E-19    2.03473377E-18    3.97823988E-02    1.33277144E-01    5.66620424E-35    2.43101924E-01    2.43101924E-01   
                   9.00000000E+01    2.86000000E+02    4.97899399E-19    2.62852286E-18    2.83572628E-02    1.49704365E-01    8.99379696E-35    2.91734970E-01    2.91734970E-01   
                   9.00000000E+01    2.88000000E+02    2.08257818E-19    3.16717223E-18    1.04675350E-02    1.59189635E-01    1.26598032E-34    3.19825556E-01    3.19825556E-01   
                   9.00000000E+01    2.90000000E+02   -2.27110576E-19    3.55894820E-18   -1.01903860E-02    1.59688978E-01    1.59815225E-34    3.21754553E-01    3.21754553E-01   
                   9.00000000E+01    2.92000000E+02   -7.29418106E-19    3.73420938E-18   -2.94839813E-02    1.50941358E-01    1.81915436E-34    2.97227321E-01    2.97227321E-01   
                   9.00000000E+01    2.94000000E+02   -1.18974396E-18    3.66467652E-18   -4.36404795E-02    1.34422402E-01    1.86552103E-34    2.50999099E-01    2.50999099E-01   
                   9.00000000E+01    2.96000000E+02   -1.49058345E-18    3.37399406E-18   -4.99107003E-02    1.12974827E-01    1.70973954E-34    1.91692311E-01    1.91692311E-01   
                   9.00000000E+01    2.98000000E+02   -1.52978770E-18    2.93738999E-18   -4.69868083E-02    9.02207413E-02    1.37834367E-34    1.30031052E-01    1.30031052E-01   
                   9.00000000E+01    3.00000000E+02   -1.24169612E-18    2.47083100E-18   -3.51232823E-02    6.98912508E-02    9.60927123E-35    7.68864829E-02    7.68864829E-02   
                   9.00000000E+01    3.02000000E+02   -6.11245213E-19    2.11232519E-18   -1.59751664E-02    5.52065615E-02    6.07651680E-35    4.15063499E-02    4.15063499E-02   
                   9.00000000E+01    3.04000000E+02    3.21344033E-19    1.99945382E-18    7.78040037E-03    4.84108918E-02    5.15356604E-35    3.02114283E-02    3.02114283E-02   
                   9.00000000E+01    3.06000000E+02    1.46556979E-18    2.24759601E-18    3.29431108E-02    5.05215138E-02    9.04726234E-35    4.57123333E-02    4.57123333E-02   
                   9.00000000E+01    3.08000000E+02    2.69369541E-18    2.93270898E-18    5.63064044E-02    6.13025131E-02    1.99262135E-34    8.70649588E-02    8.70649588E-02   
                   9.00000000E+01    3.10000000E+02    3.85886852E-18    4.08122130E-18    7.51044370E-02    7.94320478E-02    3.96434229E-34    1.50169721E-01    1.50169721E-01   
                   9.00000000E+01    3.12000000E+02    4.81480262E-18    5.66798030E-18    8.73293434E-02    1.02804006E-01    6.95024910E-34    2.28646092E-01    2.28646092E-01   
                   9.00000000E+01    3.14000000E+02    5.43372631E-18    7.62165441E-18    9.18924267E-02    1.28893558E-01    1.10100253E-33    3.14885193E-01    3.14885193E-01   
                   9.00000000E+01    3.16000000E+02    5.62009440E-18    9.83582274E-18    8.86339160E-02    1.55119723E-01    1.61262814E-33    4.01094668E-01    4.01094668E-01   
                   9.00000000E+01    3.18000000E+02    5.31865220E-18    1.21833437E-17    7.82092593E-02    1.79152584E-01    2.22075319E-33    4.80190382E-01    4.80190382E-01   
                   9.00000000E+01    3.20000000E+02    4.51657750E-18    1.45314948E-17    6.18930865E-02    1.99132876E-01    2.90991671E-33    5.46444308E-01    5.46444308E-01   
                   9.00000000E+01    3.22000000E+02    3.24037629E-18    1.67557210E-17    4.13451360E-02    2.13792319E-01    3.66000853E-33    5.95854268E-01    5.95854268E-01   