##File Type: Far field
##File Format: 5
##Source: RWG_wire_XY_rad_theta450.04
##Date: 2020-09-16 10:50:29
** File exported by POSTFEKO version 2018-319328 (x64)

#Configuration Name: StandardConfiguration1
#Request Name: FarField1
#Frequency: 3.00000000E+08
#Coordinate System: Spherical
#No. of Theta Samples: 1
#No. of Phi Samples: 181
#Result Type: RCS
#Incident Wave Direction: (4.50000000E+01, 0.00000000E+00)
#No. of Header Lines: 1
#                 "Theta"           "Phi"             "Re(Etheta)"      "Im(Etheta)"      "Re(Ephi)"        "Im(Ephi)"        "RCS(Theta)"      "RCS(Phi)"        "RCS(Total)"      
                   9.00000000E+01    0.00000000E+00   -2.44909434E-03   -9.21270690E-03   -1.83812680E-05    1.50103961E-05    1.14193163E-03    7.07716638E-09    1.14193870E-03   
                   9.00000000E+01    2.00000000E+00   -2.48214275E-03   -9.19474564E-03    1.24502111E-02   -1.05355186E-02    1.13982486E-03    3.34271627E-03    4.48254112E-03   
                   9.00000000E+01    4.00000000E+00   -2.58028060E-03   -9.13924410E-03    2.46920543E-02   -2.13349757E-02    1.13328093E-03    1.33816608E-02    1.45149417E-02   
                   9.00000000E+01    6.00000000E+00   -2.74075200E-03   -9.04187083E-03    3.64686939E-02   -3.26197077E-02    1.12176409E-03    3.00840291E-02    3.12057932E-02   
                   9.00000000E+01    8.00000000E+00   -2.95861704E-03   -8.89566552E-03    4.75191492E-02   -4.46003510E-02    1.10441156E-03    5.33726540E-02    5.44770656E-02   
                   9.00000000E+01    1.00000000E+01   -3.22626134E-03   -8.69146464E-03    5.75514816E-02   -5.74469477E-02    1.08008357E-03    8.30929245E-02    8.41730081E-02   
                   9.00000000E+01    1.20000000E+01   -3.53278006E-03   -8.41856386E-03    6.62379670E-02   -7.12720104E-02    1.04744158E-03    1.18967939E-01    1.20015380E-01   
                   9.00000000E+01    1.40000000E+01   -3.86331637E-03   -8.06567044E-03    7.32153596E-02   -8.61115157E-02    1.00506150E-03    1.60543955E-01    1.61549017E-01   
                   9.00000000E+01    1.60000000E+01   -4.19846742E-03   -7.62219454E-03    7.80918475E-02   -1.01904412E-01    9.51588141E-04    2.07129551E-01    2.08081139E-01   
                   9.00000000E+01    1.80000000E+01   -4.51390762E-03   -7.07990671E-03    8.04622837E-02   -1.18472000E-01    8.85934670E-04    2.57733673E-01    2.58619607E-01   
                   9.00000000E+01    2.00000000E+01   -4.78041259E-03   -6.43494672E-03    7.99330119E-02   -1.35499436E-01    8.07526082E-04    3.11009928E-01    3.11817454E-01   
                   9.00000000E+01    2.20000000E+01   -4.96449140E-03   -5.69010288E-03    7.61569957E-02   -1.52522579E-01    7.16577752E-04    3.65216746E-01    3.65933324E-01   
                   9.00000000E+01    2.40000000E+01   -5.02983632E-03   -4.85719170E-03    6.88788927E-02   -1.68924265E-01    6.14389521E-04    4.18205157E-01    4.18819547E-01   
                   9.00000000E+01    2.60000000E+01   -4.93976549E-03   -3.95926051E-03    5.79881370E-02   -1.83944682E-01    5.03622774E-04    4.67447249E-01    4.67950872E-01   
                   9.00000000E+01    2.80000000E+01   -4.66075081E-03   -3.03222320E-03    4.35760408E-02   -1.96710577E-01    3.88514174E-04    5.10118272E-01    5.10506786E-01   
                   9.00000000E+01    3.00000000E+01   -4.16697892E-03   -2.12544304E-03    2.59905294E-02   -2.06287171E-01    2.74967538E-04    5.43243003E-01    5.43517970E-01   
                   9.00000000E+01    3.20000000E+01   -3.44568701E-03   -1.30072696E-03    5.87972342E-03   -2.11754801E-01    1.70458414E-04    5.63911698E-01    5.64082156E-01   
                   9.00000000E+01    3.40000000E+01   -2.50275633E-03   -6.29227521E-04   -1.57863552E-02   -2.12309002E-01    8.36884660E-05    5.69562219E-01    5.69645907E-01   
                   9.00000000E+01    3.60000000E+01   -1.36776712E-03   -1.85899991E-04   -3.77274791E-02   -2.07378304E-01    2.39432801E-05    5.58312835E-01    5.58336779E-01   
                   9.00000000E+01    3.80000000E+01   -9.74701893E-05   -4.14561156E-05   -5.84087970E-02   -1.96748599E-01    1.40982707E-07    5.29315620E-01    5.29315761E-01   
                   9.00000000E+01    4.00000000E+01    1.22351478E-03   -2.52199744E-04   -7.61472321E-02   -1.80677311E-01    1.96109915E-05    4.83085112E-01    4.83104723E-01   
                   9.00000000E+01    4.20000000E+01    2.48592296E-03   -8.48688790E-04   -8.92692027E-02   -1.59976050E-01    8.67090330E-05    4.21744073E-01    4.21830782E-01   
                   9.00000000E+01    4.40000000E+01    3.56383423E-03   -1.82476729E-03   -9.63110107E-02   -1.36038198E-01    2.01447593E-04    3.49121447E-01    3.49322894E-01   
                   9.00000000E+01    4.60000000E+01    4.32765977E-03   -3.12902556E-03   -9.62422668E-02   -1.10789751E-01    3.58385853E-04    2.70641205E-01    2.70999590E-01   
                   9.00000000E+01    4.80000000E+01    4.66144612E-03   -4.66101624E-03   -8.86816669E-02   -8.65487324E-02    5.46060983E-04    1.92958143E-01    1.93504204E-01   
                   9.00000000E+01    5.00000000E+01    4.48270897E-03   -6.27441187E-03   -7.40658576E-02   -6.57912507E-02    7.47233140E-04    1.23329376E-01    1.24076609E-01   
                   9.00000000E+01    5.20000000E+01    3.76189100E-03   -7.78860635E-03   -5.37289864E-02   -5.08398363E-02    9.40143124E-04    6.87568081E-02    6.96969512E-02   
                   9.00000000E+01    5.40000000E+01    2.53768447E-03   -9.00899860E-03   -2.98555675E-02   -4.35097861E-02    1.10083792E-03    3.49905111E-02    3.60913490E-02   
                   9.00000000E+01    5.60000000E+01    9.24175543E-04   -9.75445309E-03   -5.28419044E-03   -4.47678383E-02    1.20641500E-03    2.55358958E-02    2.67423108E-02   
                   9.00000000E+01    5.80000000E+01   -8.93675040E-04   -9.88847702E-03    1.68359579E-02   -5.44696549E-02    1.23880077E-03    4.08456403E-02    4.20844411E-02   
                   9.00000000E+01    6.00000000E+01   -2.67816380E-03   -9.34890906E-03    3.35027126E-02   -7.12432220E-02    1.18846025E-03    7.78867224E-02    7.90751827E-02   
                   9.00000000E+01    6.20000000E+01   -4.17010326E-03   -8.16988623E-03    4.23676052E-02   -9.25707538E-02    1.05729424E-03    1.30242369E-01    1.31299663E-01   
                   9.00000000E+01    6.40000000E+01   -5.12974210E-03   -6.49001924E-03    4.22012004E-02   -1.15091240E-01    8.59974594E-04    1.88834033E-01    1.89694008E-01   
                   9.00000000E+01    6.60000000E+01   -5.38096470E-03   -4.54235193E-03    3.32163070E-02   -1.35102743E-01    6.23137946E-04    2.43235601E-01    2.43858739E-01   
                   9.00000000E+01    6.80000000E+01   -4.85030047E-03   -2.62477464E-03    1.71592438E-02   -1.49195540E-01    3.82204360E-04    2.83418768E-01    2.83800972E-01   
                   9.00000000E+01    7.00000000E+01   -3.59175439E-03   -1.05366189E-03   -2.88598908E-03   -1.54905301E-01    1.76066199E-04    3.01642925E-01    3.01818991E-01   
                   9.00000000E+01    7.20000000E+01   -1.79001184E-03   -1.07781507E-04   -2.29809536E-02   -1.51251660E-01    4.04104222E-05    2.94118279E-01    2.94158689E-01   
                   9.00000000E+01    7.40000000E+01    2.61793369E-04    2.70952700E-05   -3.90386284E-02   -1.39031858E-01    8.70471510E-07    2.62057484E-01    2.62058354E-01   
                   9.00000000E+01    7.60000000E+01    2.20836605E-03   -6.98986003E-04   -4.76264754E-02   -1.20775733E-01    6.74243845E-05    2.11806917E-01    2.11874341E-01   
                   9.00000000E+01    7.80000000E+01    3.69553410E-03   -2.18055894E-03   -4.67017213E-02   -1.00333716E-01    2.31369623E-04    1.53911719E-01    1.54143088E-01   
                   9.00000000E+01    8.00000000E+01    4.43870978E-03   -4.16700557E-03   -3.61089860E-02   -8.21512046E-02    4.65786098E-04    1.01192952E-01    1.01658738E-01   
                   9.00000000E+01    8.20000000E+01    4.28222452E-03   -6.30323828E-03   -1.77066482E-02   -7.03621170E-02    7.29707273E-04    6.61538096E-02    6.68835169E-02   
                   9.00000000E+01    8.40000000E+01    3.23596324E-03   -8.19440584E-03    4.93815560E-03   -6.78904925E-02    9.75398485E-04    5.82263330E-02    5.92017315E-02   
                   9.00000000E+01    8.60000000E+01    1.47982947E-03   -9.48219912E-03    2.72499055E-02   -7.57644168E-02    1.15738781E-03    8.14653203E-02    8.26227081E-02   
                   9.00000000E+01    8.80000000E+01   -6.66687620E-04   -9.91683156E-03    4.46082718E-02   -9.28130479E-02    1.24140688E-03    1.33255802E-01    1.34497209E-01   
                   9.00000000E+01    9.00000000E+01   -2.80472956E-03   -9.40890063E-03    5.33713139E-02   -1.15839260E-01    1.21132171E-03    2.04420057E-01    2.05631379E-01   
                   9.00000000E+01    9.20000000E+01   -4.53394497E-03   -8.04929192E-03    5.17283895E-02   -1.40254138E-01    1.07251155E-03    2.80821306E-01    2.81893818E-01   
                   9.00000000E+01    9.40000000E+01   -5.53155692E-03   -6.09223556E-03    4.01811673E-02   -1.61050674E-01    8.50912384E-04    3.46226704E-01    3.47077617E-01   
                   9.00000000E+01    9.60000000E+01   -5.61565217E-03   -3.90489692E-03    2.15296026E-02   -1.73910097E-01    5.87902183E-04    3.85891195E-01    3.86479097E-01   
                   9.00000000E+01    9.80000000E+01   -4.77925587E-03   -1.89441650E-03    3.50326999E-04   -1.76197430E-01    3.32130438E-04    3.90131233E-01    3.90463363E-01   
                   9.00000000E+01    1.00000000E+02   -3.18844104E-03   -4.28222705E-04   -1.79293286E-02   -1.67623311E-01    1.30056042E-04    3.57124129E-01    3.57254185E-01   
                   9.00000000E+01    1.02000000E+02   -1.14585626E-03    2.35455117E-04   -2.81661654E-02   -1.50422339E-01    1.71961442E-05    2.94307077E-01    2.94324274E-01   
                   9.00000000E+01    1.04000000E+02    9.71403878E-04   -7.18845775E-06   -2.66029686E-02   -1.29005977E-01    1.18585970E-05    2.18029798E-01    2.18041657E-01   
                   9.00000000E+01    1.06000000E+02    2.78552586E-03   -1.09266864E-03   -1.17055771E-02   -1.09163639E-01    1.12507710E-04    1.51471520E-01    1.51584028E-01   
                   9.00000000E+01    1.08000000E+02    3.98761588E-03   -2.81034920E-03    1.54344065E-02   -9.69812208E-02    2.99068851E-04    1.21184776E-01    1.21483845E-01   
                   9.00000000E+01    1.10000000E+02    4.38958510E-03   -4.84918162E-03    5.12034135E-02   -9.77002724E-02    5.37627282E-04    1.52896700E-01    1.53434327E-01   
                   9.00000000E+01    1.12000000E+02    3.94950155E-03   -6.85961764E-03    9.00403469E-02   -1.14743259E-01    7.87319770E-04    2.67327915E-01    2.68115235E-01   
                   9.00000000E+01    1.14000000E+02    2.76795861E-03   -8.51724658E-03    1.25352580E-01   -1.49083993E-01    1.00788681E-03    4.76759382E-01    4.77767269E-01   
                   9.00000000E+01    1.16000000E+02    1.05916816E-03   -9.57582109E-03    1.50585707E-01   -1.99061851E-01    1.16638773E-03    7.82905946E-01    7.84072334E-01   
                   9.00000000E+01    1.18000000E+02   -8.94903344E-04   -9.90093967E-03    1.60244594E-01   -2.60644823E-01    1.24192760E-03    1.17638889E+00    1.17763082E+00   
                   9.00000000E+01    1.20000000E+02   -2.79679567E-03   -9.48060580E-03    1.50691034E-01   -3.28061473E-01    1.22778407E-03    1.63780169E+00    1.63902948E+00   
                   9.00000000E+01    1.22000000E+02   -4.38192134E-03   -8.41388950E-03    1.20602495E-01   -3.94662454E-01    1.13090765E-03    2.14009582E+00    2.14122673E+00   
                   9.00000000E+01    1.24000000E+02   -5.45506335E-03   -6.88288150E-03    7.10503643E-02   -4.53847336E-01    9.69266457E-04    2.65182538E+00    2.65279464E+00   
                   9.00000000E+01    1.26000000E+02   -5.91054563E-03   -5.11538676E-03    5.22771895E-03   -4.99902041E-01    7.67827003E-04    3.14070521E+00    3.14147304E+00   
                   9.00000000E+01    1.28000000E+02   -5.73537348E-03   -3.34619245E-03   -7.20881809E-02   -5.28628930E-01    5.54070292E-04    3.57695773E+00    3.57751180E+00   
                   9.00000000E+01    1.30000000E+02   -4.99781260E-03   -1.78355173E-03   -1.55222536E-01   -5.37703564E-01    3.53858787E-04    3.93602802E+00    3.93638188E+00   
                   9.00000000E+01    1.32000000E+02   -3.82594086E-03   -5.85317684E-04   -2.38317597E-01   -5.26746763E-01    1.88249513E-04    4.20040274E+00    4.20059099E+00   
                   9.00000000E+01    1.34000000E+02   -2.38149343E-03    1.53398057E-04   -3.15970675E-01   -4.97147020E-01    7.15660072E-05    4.36043795E+00    4.36050952E+00   
                   9.00000000E+01    1.36000000E+02   -8.33968430E-04    4.01497918E-04   -3.83721987E-01   -4.51699741E-01    1.07656590E-05    4.41425459E+00    4.41426536E+00   
                   9.00000000E+01    1.38000000E+02    6.61194861E-04    1.84266886E-04   -4.38355309E-01   -3.94143892E-01    5.92043101E-06    4.36687392E+00    4.36687984E+00   
                   9.00000000E+01    1.40000000E+02    1.97809294E-03   -4.30079780E-04   -4.78008934E-01   -3.28674751E-01    5.14947285E-05    4.22883043E+00    4.22888192E+00   
                   9.00000000E+01    1.42000000E+02    3.02875847E-03   -1.34642378E-03   -5.02121473E-01   -2.59497799E-01    1.38057099E-04    4.01451661E+00    4.01465467E+00   
                   9.00000000E+01    1.44000000E+02    3.76501510E-03   -2.45852124E-03   -5.11253954E-01   -1.90468484E-01    2.54087810E-04    3.74049141E+00    3.74074550E+00   
                   9.00000000E+01    1.46000000E+02    4.17515433E-03   -3.66247469E-03   -5.06836233E-01   -1.24840690E-01    3.87617676E-04    3.42393594E+00    3.42432355E+00   
                   9.00000000E+01    1.48000000E+02    4.27718886E-03   -4.86672777E-03   -4.90883710E-01   -6.51271574E-02    5.27528494E-04    3.08137917E+00    3.08190670E+00   
                   9.00000000E+01    1.50000000E+02    4.11043988E-03   -5.99822577E-03   -4.65722368E-01   -1.30602463E-02    6.64439663E-04    2.72775561E+00    2.72842005E+00   
                   9.00000000E+01    1.52000000E+02    3.72694989E-03   -7.00501516E-03   -4.33749130E-01    3.03677377E-02    7.91183631E-04    2.37580440E+00    2.37659559E+00   
                   9.00000000E+01    1.54000000E+02    3.18380450E-03   -7.85595564E-03   -3.97243031E-01    6.48092685E-02    9.02927032E-04    2.03578053E+00    2.03668345E+00   
                   9.00000000E+01    1.56000000E+02    2.53700674E-03   -8.53839687E-03   -3.58232489E-01    9.04354842E-02    9.97023690E-04    1.71542385E+00    1.71642088E+00   
                   9.00000000E+01    1.58000000E+02    1.83715443E-03   -9.05467300E-03   -3.18416131E-01    1.07799936E-01    1.07269354E-03    1.42012125E+00    1.42119395E+00   
                   9.00000000E+01    1.60000000E+02    1.12686978E-03   -9.41815021E-03   -2.79129496E-01    1.17707982E-01    1.13061382E-03    1.15319629E+00    1.15432690E+00   
                   9.00000000E+01    1.62000000E+02    4.39734898E-04   -9.64938276E-03   -2.41347349E-01    1.21102314E-01    1.17249207E-03    9.16268286E-01    9.17440778E-01   
                   9.00000000E+01    1.64000000E+02   -1.99611168E-04   -9.77273949E-03   -2.05710766E-01    1.18970306E-01    1.20066999E-03    7.09633667E-01    7.10834337E-01   
                   9.00000000E+01    1.66000000E+02   -7.74578330E-04   -9.81368717E-03   -1.72569053E-01    1.12274962E-01    1.21778722E-03    5.32634983E-01    5.33852770E-01   
                   9.00000000E+01    1.68000000E+02   -1.27526669E-03   -9.79677785E-03   -1.42028263E-01    1.01908482E-01    1.22651750E-03    3.83995190E-01    3.85221707E-01   
                   9.00000000E+01    1.70000000E+02   -1.69691452E-03   -9.74429020E-03   -1.14000146E-01    8.86657340E-02    1.22937697E-03    2.62104906E-01    2.63334283E-01   
                   9.00000000E+01    1.72000000E+02   -2.03835360E-03   -9.67541698E-03   -8.82474037E-02    7.32341372E-02    1.22859620E-03    1.65258368E-01    1.66486965E-01   
                   9.00000000E+01    1.74000000E+02   -2.30060560E-03   -9.60586550E-03   -6.44229597E-02    5.61962759E-02    1.22604346E-03    9.18392985E-02    9.30653419E-02   
                   9.00000000E+01    1.76000000E+02   -2.48569773E-03   -9.54773673E-03   -4.21023981E-02    3.80418838E-02    1.22318500E-03    4.04611605E-02    4.16843456E-02   
                   9.00000000E+01    1.78000000E+02   -2.59573498E-03   -9.50956230E-03   -2.08098624E-02    1.91863402E-02    1.22106940E-03    1.00677492E-02    1.12888186E-02   
                   9.00000000E+01    1.80000000E+02   -2.63224080E-03   -9.49640188E-03   -3.84752165E-05   -6.59060181E-06    1.22032453E-03    1.91483631E-08    1.22034367E-03   
                   9.00000000E+01    1.82000000E+02   -2.59576487E-03   -9.50992988E-03    2.07331397E-02   -1.91995209E-02    1.22115920E-03    1.00340545E-02    1.12552137E-02   
                   9.00000000E+01    1.84000000E+02   -2.48575311E-03   -9.54846908E-03    4.20263533E-02   -3.80550560E-02    1.22336421E-03    4.03933625E-02    4.16167268E-02   
                   9.00000000E+01    1.86000000E+02   -2.30067783E-03   -9.60695685E-03    6.43480267E-02   -5.62094113E-02    1.22631112E-03    9.17365973E-02    9.29629085E-02   
                   9.00000000E+01    1.88000000E+02   -2.03843024E-03   -9.67685825E-03    8.81739884E-02   -7.32471758E-02    1.22895063E-03    1.65119609E-01    1.66348560E-01   
                   9.00000000E+01    1.90000000E+02   -1.69697992E-03   -9.74606859E-03    1.13928612E-01   -8.86785764E-02    1.22981532E-03    2.61928635E-01    2.63158450E-01   
                   9.00000000E+01    1.92000000E+02   -1.27530288E-03   -9.79887626E-03    1.41958916E-01   -1.01920986E-01    1.22703539E-03    3.83779739E-01    3.85006775E-01   
                   9.00000000E+01    1.94000000E+02   -7.74566169E-04   -9.81608379E-03    1.72502124E-01   -1.12286948E-01    1.21837816E-03    5.32378581E-01    5.33596959E-01   
                   9.00000000E+01    1.96000000E+02   -1.99531825E-04   -9.77540732E-03    2.05646396E-01   -1.18981564E-01    1.20132494E-03    7.09334582E-01    7.10535907E-01   
                   9.00000000E+01    1.98000000E+02    4.39898180E-04   -9.65228951E-03    2.41285573E-01   -1.21112630E-01    1.17319891E-03    9.15925014E-01    9.17098213E-01   
                   9.00000000E+01    2.00000000E+02    1.12712963E-03   -9.42125853E-03    2.79070237E-01   -1.17717164E-01    1.13135705E-03    1.15280777E+00    1.15393913E+00   
                   9.00000000E+01    2.02000000E+02    1.83751710E-03   -9.05794127E-03    3.18359200E-01   -1.07807853E-01    1.07345418E-03    1.41968715E+00    1.42076060E+00   
                   9.00000000E+01    2.04000000E+02    2.53746984E-03   -8.54178071E-03    3.58177606E-01   -9.04421072E-02    9.97779513E-04    1.71494481E+00    1.71594259E+00   
                   9.00000000E+01    2.06000000E+02    3.18435482E-03   -7.85941032E-03    3.97189854E-01   -6.48147175E-02    9.03653318E-04    2.03525853E+00    2.03616218E+00   
                   9.00000000E+01    2.08000000E+02    3.72756184E-03   -7.00849897E-03    4.33697313E-01   -3.03723164E-02    7.91854451E-04    2.37524306E+00    2.37603492E+00   
                   9.00000000E+01    2.10000000E+02    4.11107479E-03   -6.00170431E-03    4.65671638E-01    1.30560290E-02    6.65029807E-04    2.72716047E+00    2.72782550E+00   
                   9.00000000E+01    2.12000000E+02    4.27779564E-03   -4.87017905E-03    4.90833960E-01    6.51225933E-02    5.28016017E-04    3.08075795E+00    3.08128597E+00   
                   9.00000000E+01    2.14000000E+02    4.17567205E-03   -3.66589465E-03    5.06787623E-01    1.24834914E-01    3.87986952E-04    3.42329865E+00    3.42368664E+00   
                   9.00000000E+01    2.16000000E+02    3.76537776E-03   -2.46192903E-03    5.11207014E-01    1.90460560E-01    2.54332838E-04    3.73985036E+00    3.74010470E+00   
                   9.00000000E+01    2.18000000E+02    3.02890237E-03   -1.34986592E-03    5.02077171E-01    2.59486859E-01    1.38184681E-04    4.01388620E+00    4.01402439E+00   
                   9.00000000E+01    2.20000000E+02    1.97796642E-03   -4.33632185E-04    4.77968708E-01    3.28660170E-01    5.15269957E-05    4.22822674E+00    4.22827826E+00   
                   9.00000000E+01    2.22000000E+02    6.60769870E-04    1.80500416E-04    4.38321029E-01    3.94125495E-01    5.89610617E-06    4.36631403E+00    4.36631992E+00   
                   9.00000000E+01    2.24000000E+02   -8.34684119E-04    3.97391719E-04    3.83695826E-01    4.51678020E-01    1.07394435E-05    4.41375573E+00    4.41376647E+00   
                   9.00000000E+01    2.26000000E+02   -2.38244511E-03    1.48815992E-04    3.15954894E-01    4.97123309E-01    7.16055787E-05    4.36001638E+00    4.36008799E+00   
                   9.00000000E+01    2.28000000E+02   -3.82701931E-03   -5.90505418E-04    2.38314234E-01    5.26723347E-01    1.88429880E-04    4.20007261E+00    4.20026104E+00   
                   9.00000000E+01    2.30000000E+02   -4.99885258E-03   -1.78944733E-03    1.55233032E-01    5.37683671E-01    3.54254141E-04    3.93580015E+00    3.93615440E+00   
                   9.00000000E+01    2.32000000E+02   -5.73616080E-03   -3.35284702E-03    7.21129879E-02    5.28616576E-01    5.54743986E-04    3.57683854E+00    3.57739329E+00   
                   9.00000000E+01    2.34000000E+02   -5.91083444E-03   -5.12277816E-03   -5.18948858E-03    4.99901706E-01    7.68820856E-04    3.14069599E+00    3.14146481E+00   
                   9.00000000E+01    2.36000000E+02   -5.45460373E-03   -6.89089810E-03   -7.10011797E-02    4.53863489E-01    9.70591009E-04    2.65192184E+00    2.65289243E+00   
                   9.00000000E+01    2.38000000E+02   -4.38049523E-03   -8.42232485E-03   -1.20546467E-01    3.94698969E-01    1.13253528E-03    2.14028824E+00    2.14142078E+00   
                   9.00000000E+01    2.40000000E+02   -2.79425664E-03   -9.48916850E-03   -1.50633745E-01    3.28120995E-01    1.22964687E-03    1.63807558E+00    1.63930522E+00   
                   9.00000000E+01    2.42000000E+02   -8.91213481E-04   -9.90928083E-03   -1.60192672E-01    2.60728199E-01    1.24392125E-03    1.17672608E+00    1.17797000E+00   
                   9.00000000E+01    2.44000000E+02    1.06391242E-03   -9.58357876E-03   -1.50546174E-01    1.99167714E-01    1.16838208E-03    7.83286119E-01    7.84454501E-01   
                   9.00000000E+01    2.46000000E+02    2.77351981E-03   -8.52410241E-03   -1.25332027E-01    1.49208613E-01    1.00974224E-03    4.77161773E-01    4.78171515E-01   
                   9.00000000E+01    2.48000000E+02    3.95551972E-03   -6.86535722E-03   -9.00440635E-02    1.14880714E-01    7.88907524E-04    2.67732959E-01    2.68521867E-01   
                   9.00000000E+01    2.50000000E+02    4.39562348E-03   -4.85374666E-03   -5.12345887E-02    9.78429641E-02    5.38850526E-04    1.53287463E-01    1.53826313E-01   
                   9.00000000E+01    2.52000000E+02    3.99322996E-03   -2.81386886E-03   -1.54935568E-02    9.71206902E-02    2.99880645E-04    1.21547953E-01    1.21847834E-01   
                   9.00000000E+01    2.54000000E+02    2.79034593E-03   -1.09545922E-03    1.16208432E-02    1.09291588E-01    1.12922177E-04    1.51797927E-01    1.51910850E-01   
                   9.00000000E+01    2.56000000E+02    9.75215936E-04   -9.71542287E-06    2.64977769E-02    1.29115342E-01    1.19523842E-05    2.18314347E-01    2.18326299E-01   
                   9.00000000E+01    2.58000000E+02   -1.14304897E-03    2.32651074E-04    2.80477881E-02    1.50508247E-01    1.70989032E-05    2.94548325E-01    2.94565424E-01   
                   9.00000000E+01    2.60000000E+02   -3.18639225E-03   -4.31819943E-04    1.78062517E-02    1.67683760E-01    1.29930794E-04    3.57323566E-01    3.57453497E-01   
                   9.00000000E+01    2.62000000E+02   -4.77749708E-03   -1.89919063E-03   -4.69547485E-04    1.76233563E-01    3.32146811E-04    3.90292486E-01    3.90624632E-01   
                   9.00000000E+01    2.64000000E+02   -5.61356194E-03   -3.91100559E-03   -2.16375193E-02    1.73926014E-01    5.88207208E-04    3.86019307E-01    3.86607515E-01   
                   9.00000000E+01    2.66000000E+02   -5.52846936E-03   -6.09955302E-03   -4.02724647E-02    1.61052797E-01    8.51604345E-04    3.46327601E-01    3.47179205E-01   
                   9.00000000E+01    2.68000000E+02   -4.52927837E-03   -8.05740416E-03   -5.18005844E-02    1.40250229E-01    1.07362200E-03    2.80901451E-01    2.81975073E-01   
                   9.00000000E+01    2.70000000E+02   -2.79810934E-03   -9.41715913E-03   -5.34250181E-02    1.15837240E-01    1.21280935E-03    2.04486250E-01    2.05699059E-01   
                   9.00000000E+01    2.72000000E+02   -6.58036895E-04   -9.92445882E-03   -4.46469778E-02    9.28198208E-02    1.24316460E-03    1.33315014E-01    1.34558179E-01   
                   9.00000000E+01    2.74000000E+02    1.49025315E-03   -9.48842725E-03   -2.72793357E-02    7.57848750E-02    1.15926159E-03    8.15244480E-02    8.26837096E-02   
                   9.00000000E+01    2.76000000E+02    3.24759558E-03   -8.19862064E-03   -4.96528961E-03    6.79268679E-02    9.77214481E-04    5.82917928E-02    5.92690073E-02   
                   9.00000000E+01    2.78000000E+02    4.29428358E-03   -6.30509929E-03    1.76747016E-02    7.04137672E-02    7.31301804E-04    6.62309771E-02    6.69622789E-02   
                   9.00000000E+01    2.80000000E+02    4.45032961E-03   -4.16651654E-03    3.60660862E-02    8.22148526E-02    4.67032854E-04    1.01285507E-01    1.01752540E-01   
                   9.00000000E+01    2.82000000E+02    3.70591664E-03   -2.17807382E-03    4.66435881E-02    1.00404084E-01    2.32199181E-04    1.54021033E-01    1.54253233E-01   
                   9.00000000E+01    2.84000000E+02    2.21692061E-03   -6.95149194E-04    4.75512458E-02    1.20846446E-01    6.78328839E-05    2.11931645E-01    2.11999478E-01   
                   9.00000000E+01    2.86000000E+02    2.68236473E-04    3.14617162E-05    3.89470098E-02    1.39096461E-01    9.16599176E-07    2.62193491E-01    2.62194408E-01   
                   9.00000000E+01    2.88000000E+02   -1.78561475E-03   -1.03742576E-04    2.28759771E-02    1.51304580E-01    4.02021135E-05    2.94258988E-01    2.94299190E-01   
                   9.00000000E+01    2.90000000E+02   -3.58901098E-03   -1.05069890E-03    2.77243293E-03    1.54942598E-01    1.75740291E-04    3.01780071E-01    3.01955811E-01   
                   9.00000000E+01    2.92000000E+02   -4.84856982E-03   -2.62340929E-03   -1.72756437E-02    1.49215363E-01    3.81903384E-04    2.83543468E-01    2.83925372E-01   
                   9.00000000E+01    2.94000000E+02   -5.37947377E-03   -4.54280714E-03   -3.33297164E-02    1.35105432E-01    6.22988312E-04    2.43339570E-01    2.43962559E-01   
                   9.00000000E+01    2.96000000E+02   -5.12771620E-03   -6.49220241E-03   -4.23064776E-02    1.15079110E-01    8.60069619E-04    1.88910746E-01    1.89770816E-01   
                   9.00000000E+01    2.98000000E+02   -4.16688625E-03   -8.17342596E-03   -4.24609091E-02    9.25476086E-02    1.05768418E-03    1.30287988E-01    1.31345672E-01   
                   9.00000000E+01    3.00000000E+02   -2.67330794E-03   -9.35323326E-03   -3.35818595E-02    7.12137242E-02    1.18914997E-03    7.79006379E-02    7.90897879E-02   
                   9.00000000E+01    3.02000000E+02   -8.86988871E-04   -9.89291446E-03   -1.69005046E-02    5.44386485E-02    1.23975422E-03    4.08305698E-02    4.20703241E-02   
                   9.00000000E+01    3.04000000E+02    9.32624090E-04   -9.75833847E-03    5.23311184E-03    4.47397392E-02    1.20756485E-03    2.54975395E-02    2.67051043E-02   
                   9.00000000E+01    3.06000000E+02    2.54760394E-03   -9.01176352E-03    2.98156025E-02    4.34881148E-02    1.10209794E-03    3.49368512E-02    3.60389491E-02   
                   9.00000000E+01    3.08000000E+02    3.77282977E-03   -7.78984377E-03    5.36970189E-02    5.08269406E-02    9.41421096E-04    6.86971780E-02    6.96385991E-02   
                   9.00000000E+01    3.10000000E+02    4.49413183E-03   -6.27390843E-03    7.40384952E-02    6.57882249E-02    7.48442325E-04    1.23273448E-01    1.24021890E-01   
                   9.00000000E+01    3.12000000E+02    4.67281006E-03   -4.65875289E-03    8.86556791E-02    8.65555100E-02    5.47128873E-04    1.92914973E-01    1.93462102E-01   
                   9.00000000E+01    3.14000000E+02    4.33847806E-03   -3.12515231E-03    9.62149236E-02    1.10805326E-01    3.59259578E-04    2.70618448E-01    2.70977708E-01   
                   9.00000000E+01    3.16000000E+02    3.57372166E-03   -1.81956073E-03    9.62802951E-02    1.36060923E-01    2.02095988E-04    3.49124813E-01    3.49326909E-01   
                   9.00000000E+01    3.18000000E+02    2.49461975E-03   -8.42501784E-04    8.92338947E-02    1.60003947E-01    8.71218550E-05    4.21777047E-01    4.21864169E-01   
                   9.00000000E+01    3.20000000E+02    1.23089043E-03   -2.45411952E-04    7.61068798E-02    1.80708364E-01    1.97960334E-05    4.83148926E-01    4.83168722E-01   
                   9.00000000E+01    3.22000000E+02   -9.14291403E-05   -3.44317718E-05    5.83636030E-02    1.96780981E-01    1.19943929E-07    5.29409438E-01    5.29409558E-01   