##File Type: Far field
##File Format: 5
##Source: Thin_wire_XY_rad_theta450.0001
##Date: 2020-09-16 11:26:48
** File exported by POSTFEKO version 2018-319328 (x64)

#Configuration Name: StandardConfiguration1
#Request Name: FarField1
#Frequency: 3.00000000E+08
#Coordinate System: Spherical
#No. of Theta Samples: 1
#No. of Phi Samples: 181
#Result Type: RCS
#Incident Wave Direction: (4.50000000E+01, 0.00000000E+00)
#No. of Header Lines: 1
#                 "Theta"           "Phi"             "Re(Etheta)"      "Im(Etheta)"      "Re(Ephi)"        "Im(Ephi)"        "RCS(Theta)"      "RCS(Phi)"        "RCS(Total)"      
                   9.00000000E+01    0.00000000E+00   -4.22168225E-17   -2.23144292E-18    0.00000000E+00    0.00000000E+00    2.24591132E-32    0.00000000E+00    2.24591132E-32   
                   9.00000000E+01    2.00000000E+00   -4.22150899E-17   -2.07464323E-18    2.40752423E-02    1.18316788E-03    2.24487901E-32    7.30127721E-03    7.30127721E-03   
                   9.00000000E+01    4.00000000E+00   -4.22050870E-17   -1.60466552E-18    4.81978508E-02    1.83251439E-03    2.24164489E-32    2.92342906E-02    2.92342906E-02   
                   9.00000000E+01    6.00000000E+00   -4.21724522E-17   -8.23050385E-19    7.23882730E-02    1.41275152E-03    2.23580004E-32    6.58736428E-02    6.58736428E-02   
                   9.00000000E+01    8.00000000E+00   -4.20934561E-17    2.66724811E-19    9.66131534E-02   -6.12188390E-04    2.22667314E-32    1.17300487E-01    1.17300487E-01   
                   9.00000000E+01    1.00000000E+01   -4.19353917E-17    1.65791237E-18    1.20758753E-01   -4.77418768E-03    2.21334721E-32    1.83537739E-01    1.83537739E-01   
                   9.00000000E+01    1.20000000E+01   -4.16572753E-17    3.33869851E-18    1.44605403E-01   -1.15896645E-02    2.19468583E-32    2.64459809E-01    2.64459809E-01   
                   9.00000000E+01    1.40000000E+01   -4.12109987E-17    5.29003614E-18    1.67804399E-01   -2.15401559E-02    2.16937138E-32    3.59678361E-01    3.59678361E-01   
                   9.00000000E+01    1.60000000E+01   -4.05430909E-17    7.48324829E-18    1.89859546E-01   -3.50433597E-02    2.13595782E-32    4.68407496E-01    4.68407496E-01   
                   9.00000000E+01    1.80000000E+01   -3.95972452E-17    9.87760880E-18    2.10116499E-01   -5.24139638E-02    2.09294032E-32    5.89314612E-01    5.89314612E-01   
                   9.00000000E+01    2.00000000E+01   -3.83177337E-17    1.24181811E-17    2.27763866E-01   -7.38147244E-02    2.03884329E-32    7.20367099E-01    7.20367099E-01   
                   9.00000000E+01    2.20000000E+01   -3.66537638E-17    1.50342714E-17    2.41850660E-01   -9.91998661E-02    1.97232670E-32    8.58689703E-01    8.58689703E-01   
                   9.00000000E+01    2.40000000E+01   -3.45647209E-17    1.76389146E-17    2.51324794E-01   -1.28254951E-01    1.89230848E-32    1.00045256E+00    1.00045256E+00   
                   9.00000000E+01    2.60000000E+01   -3.20260838E-17    2.01298459E-17    2.55096650E-01   -1.60339812E-01    1.79809777E-32    1.14081478E+00    1.14081478E+00   
                   9.00000000E+01    2.80000000E+01   -2.90356133E-17    2.23923852E-17    2.52129993E-01   -1.94443695E-01    1.68953063E-32    1.27395206E+00    1.27395206E+00   
                   9.00000000E+01    3.00000000E+01   -2.56192000E-17    2.43045680E-17    2.41559477E-01   -2.29164015E-01    1.56709608E-32    1.39319740E+00    1.39319740E+00   
                   9.00000000E+01    3.20000000E+01   -2.18355602E-17    2.57446587E-17    2.22829511E-01   -2.62721434E-01    1.43203738E-32    1.49132086E+00    1.49132086E+00   
                   9.00000000E+01    3.40000000E+01   -1.77788232E-17    2.66008867E-17    1.95843694E-01   -2.93023665E-01    1.28641148E-32    1.56096466E+00    1.56096466E+00   
                   9.00000000E+01    3.60000000E+01   -1.35780113E-17    2.67828537E-17    1.61107719E-01   -3.17787663E-01    1.13308908E-32    1.59523410E+00    1.59523410E+00   
                   9.00000000E+01    3.80000000E+01   -9.39253819E-18    2.62336093E-17    1.19842800E-01   -3.34724133E-01    9.75680700E-33    1.58842119E+00    1.58842119E+00   
                   9.00000000E+01    4.00000000E+01   -5.40316807E-18    2.49409559E-17    7.40425131E-02   -3.41779310E-01    8.18379242E-33    1.53680921E+00    1.53680921E+00   
                   9.00000000E+01    4.20000000E+01   -1.79842439E-18    2.29461944E-17    2.64453162E-02   -3.37417225E-01    6.65718772E-33    1.43947447E+00    1.43947447E+00   
                   9.00000000E+01    4.40000000E+01    1.24283191E-18    2.03483956E-17   -1.96005709E-02   -3.20912401E-01    5.22260669E-33    1.29897255E+00    1.29897255E+00   
                   9.00000000E+01    4.60000000E+01    3.57108887E-18    1.73024613E-17   -6.03924459E-02   -2.92610460E-01    3.92231415E-33    1.12177639E+00    1.12177639E+00   
                   9.00000000E+01    4.80000000E+01    5.08575259E-18    1.40098077E-17   -9.22437470E-02   -2.54105393E-01    2.79148844E-33    9.18331006E-01    9.18331006E-01   
                   9.00000000E+01    5.00000000E+01    5.75161457E-18    1.07014757E-17   -1.11942600E-01   -2.08280823E-01    1.85482964E-33    7.02611501E-01    7.02611501E-01   
                   9.00000000E+01    5.20000000E+01    5.60904611E-18    7.61475364E-18   -1.17246077E-01   -1.59171448E-01    1.12400997E-33    4.91121313E-01    4.91121313E-01   
                   9.00000000E+01    5.40000000E+01    4.77514569E-18    4.96581451E-18   -1.07335833E-01   -1.11621691E-01    5.96416664E-34    3.01346378E-01    3.01346378E-01   
                   9.00000000E+01    5.60000000E+01    3.43412793E-18    2.92213170E-18   -8.31473048E-02   -7.07508222E-02    2.55500557E-34    1.49780496E-01    1.49780496E-01   
                   9.00000000E+01    5.80000000E+01    1.81691197E-18    1.57922222E-18   -4.74858052E-02   -4.12736774E-02    7.28235243E-35    4.97429494E-02    4.97429494E-02   
                   9.00000000E+01    6.00000000E+01    1.71914137E-19    9.46268800E-19   -4.86285547E-03   -2.67666668E-02    1.16236303E-35    9.30039368E-03    9.30039368E-03   
                   9.00000000E+01    6.20000000E+01   -1.26891153E-18    9.44200854E-19    3.89741024E-02   -2.90007459E-02    3.14366826E-35    2.96569353E-02    2.96569353E-02   
                   9.00000000E+01    6.40000000E+01   -2.32319550E-18    1.41788343E-18    7.77898845E-02   -4.74764128E-02    9.30870334E-35    1.04367175E-01    1.04367175E-01   
                   9.00000000E+01    6.60000000E+01   -2.88426841E-18    2.16143316E-18    1.05796593E-01   -7.92825876E-02    1.63247177E-34    2.19643165E-01    2.19643165E-01   
                   9.00000000E+01    6.80000000E+01   -2.93481218E-18    2.95285571E-18    1.18628735E-01   -1.19358077E-01    2.17806360E-34    3.55868650E-01    3.55868650E-01   
                   9.00000000E+01    7.00000000E+01   -2.54464530E-18    3.59183952E-18    1.14177500E-01   -1.61164803E-01    2.43492668E-34    4.90221596E-01    4.90221596E-01   
                   9.00000000E+01    7.20000000E+01   -1.85234700E-18    3.93330657E-18    9.31033807E-02   -1.97697375E-01    2.37530668E-34    6.00075506E-01    6.00075506E-01   
                   9.00000000E+01    7.40000000E+01   -1.03395222E-18    3.90968705E-18    5.88875080E-02   -2.22671534E-01    2.05519347E-34    6.66650368E-01    6.66650368E-01   
                   9.00000000E+01    7.60000000E+01   -2.65055618E-19    3.53696698E-18    1.73614142E-02   -2.31674957E-01    1.58089842E-34    6.78266138E-01    6.78266138E-01   
                   9.00000000E+01    7.80000000E+01    3.15500279E-19    2.90301985E-18   -2.42406564E-02   -2.23046100E-01    1.07154255E-34    6.32555560E-01    6.32555560E-01   
                   9.00000000E+01    8.00000000E+01    6.32216904E-19    2.14081739E-18   -5.85553359E-02   -1.98280496E-01    6.26156779E-35    5.37135471E-01    5.37135471E-01   
                   9.00000000E+01    8.20000000E+01    6.83749218E-19    1.39280311E-18   -7.94535778E-02   -1.61847630E-01    3.02524502E-35    4.08501622E-01    4.08501622E-01   
                   9.00000000E+01    8.40000000E+01    5.35583793E-19    7.74998421E-19   -8.32197399E-02   -1.20420311E-01    1.11523090E-35    2.69254301E-01    2.69254301E-01   
                   9.00000000E+01    8.60000000E+01    2.96702549E-19    3.49593118E-19   -6.92941693E-02   -8.16466349E-02    2.64205116E-36    1.44109315E-01    1.44109315E-01   
                   9.00000000E+01    8.80000000E+01    8.64058901E-20    1.12690287E-19   -4.04090544E-02   -5.27013600E-02    2.53401851E-37    5.54217788E-02    5.54217788E-02   
                   9.00000000E+01    9.00000000E+01    7.77253915E-36    1.45894378E-34   -2.07300909E-03   -3.89113990E-02    2.68236493E-67    1.90807060E-02    1.90807060E-02   
                   9.00000000E+01    9.20000000E+01    8.23218448E-20   -9.13948059E-20    3.84990873E-02   -4.27421982E-02    1.90127889E-37    4.15830657E-02    4.15830657E-02   
                   9.00000000E+01    9.40000000E+01    3.15960684E-19   -2.71283661E-19    7.37918605E-02   -6.33576490E-02    2.17933512E-36    1.18870708E-01    1.18870708E-01   
                   9.00000000E+01    9.60000000E+01    6.27087591E-19   -6.23254895E-19    9.74377247E-02   -9.68421952E-02    9.82294983E-36    2.37159093E-01    2.37159093E-01   
                   9.00000000E+01    9.80000000E+01    9.07100137E-19   -1.17922731E-18    1.05407581E-01   -1.37029522E-01    2.78145014E-35    3.75581775E-01    3.75581775E-01   
                   9.00000000E+01    1.00000000E+02    1.04411720E-18   -1.90838004E-18    9.67051542E-02   -1.76752367E-01    5.94652606E-35    5.10110276E-01    5.10110276E-01   
                   9.00000000E+01    1.02000000E+02    9.55844797E-19   -2.72337211E-18    7.34398883E-02   -2.09243325E-01    1.04682830E-34    6.17966182E-01    6.17966182E-01   
                   9.00000000E+01    1.04000000E+02    6.15117291E-19   -3.50216810E-18    4.02908121E-02   -2.29395595E-01    1.58883544E-34    6.81671426E-01    6.81671426E-01   
                   9.00000000E+01    1.06000000E+02    6.14816686E-20   -4.11978548E-18    3.50161466E-03   -2.34637438E-01    2.13331890E-34    6.91992190E-01    6.91992190E-01   
                   9.00000000E+01    1.08000000E+02   -6.04105210E-19   -4.48188829E-18   -3.03637695E-02   -2.25270401E-01    2.57010751E-34    6.49288187E-01    6.49288187E-01   
                   9.00000000E+01    1.10000000E+02   -1.24010757E-18   -4.55191597E-18   -5.56432689E-02   -2.04243156E-01    2.79699837E-34    5.63117164E-01    5.63117164E-01   
                   9.00000000E+01    1.12000000E+02   -1.69567610E-18   -4.36528680E-18   -6.85413236E-02   -1.76450287E-01    2.75593656E-34    4.50285944E-01    4.50285944E-01   
                   9.00000000E+01    1.14000000E+02   -1.84498207E-18   -4.02753896E-18   -6.76749831E-02   -1.47732401E-01    2.46615387E-34    3.31812072E-01    3.31812072E-01   
                   9.00000000E+01    1.16000000E+02   -1.61689663E-18   -3.69712564E-18   -5.41401712E-02   -1.23794565E-01    2.04619378E-34    2.29414835E-01    2.29414835E-01   
                   9.00000000E+01    1.18000000E+02   -1.01376500E-18   -3.55697388E-18   -3.11373805E-02   -1.09251009E-01    1.71905218E-34    1.62173026E-01    1.62173026E-01   
                   9.00000000E+01    1.20000000E+02   -1.15796328E-19   -3.78108574E-18   -3.27547703E-03   -1.06953819E-01    1.79824992E-34    1.43883036E-01    1.43883036E-01   
                   9.00000000E+01    1.22000000E+02    9.29130985E-19   -4.50303030E-18    2.42832529E-02   -1.17688706E-01    2.65660191E-34    1.81462262E-01    1.81462262E-01   
                   9.00000000E+01    1.24000000E+02    1.92747259E-18   -5.79220701E-18    4.66680781E-02   -1.40241252E-01    4.68283446E-34    2.74518880E-01    2.74518880E-01   
                   9.00000000E+01    1.26000000E+02    2.66900531E-18   -7.64167335E-18    5.99939616E-02   -1.71769706E-01    8.23333032E-34    4.15998482E-01    4.15998482E-01   
                   9.00000000E+01    1.28000000E+02    2.95716682E-18   -9.96873293E-18    6.18137560E-02   -2.08376755E-01    1.35868192E-33    5.93658124E-01    5.93658124E-01   
                   9.00000000E+01    1.30000000E+02    2.63553453E-18   -1.26270051E-17    5.12949161E-02   -2.45757040E-01    2.09088447E-33    7.92029328E-01    7.92029328E-01   
                   9.00000000E+01    1.32000000E+02    1.60658756E-18   -1.54268340E-17    2.91397692E-02   -2.79806960E-01    3.02307081E-33    9.94515905E-01    9.94515905E-01   
                   9.00000000E+01    1.34000000E+02   -1.59245297E-19   -1.81599155E-17   -2.69307579E-03   -3.07111291E-01    4.14448816E-33    1.18531785E+00    1.18531785E+00   
                   9.00000000E+01    1.36000000E+02   -2.62434442E-18   -2.06239493E-17   -4.13882591E-02   -3.25258129E-01    5.43161853E-33    1.35095821E+00    1.35095821E+00   
                   9.00000000E+01    1.38000000E+02   -5.69298103E-18   -2.26438064E-17   -8.37136577E-02   -3.32970696E-01    6.85058209E-33    1.48129186E+00    1.48129186E+00   
                   9.00000000E+01    1.40000000E+02   -9.22621497E-18   -2.40868443E-17   -1.26431777E-01   -3.30074960E-01    8.36039520E-33    1.56997290E+00    1.56997290E+00   
                   9.00000000E+01    1.42000000E+02   -1.30596987E-17   -2.48713137E-17   -1.66633431E-01   -3.17342109E-01    9.91660027E-33    1.61443575E+00    1.61443575E+00   
                   9.00000000E+01    1.44000000E+02   -1.70216260E-17   -2.49679968E-17   -2.01967378E-01   -2.96253769E-01    1.14748131E-32    1.61549639E+00    1.61549639E+00   
                   9.00000000E+01    1.46000000E+02   -2.09486077E-17   -2.43961327E-17   -2.30760646E-01   -2.68737065E-01    1.29938215E-32    1.57670360E+00    1.57670360E+00   
                   9.00000000E+01    1.48000000E+02   -2.46980120E-17   -2.32152273E-17   -2.52040519E-01   -2.36908863E-01    1.44379879E-32    1.50356916E+00    1.50356916E+00   
                   9.00000000E+01    1.50000000E+02   -2.81560903E-17   -2.15145244E-17   -2.65479424E-01   -2.02857125E-01    1.57788399E-32    1.40278820E+00    1.40278820E+00   
                   9.00000000E+01    1.52000000E+02   -3.12419013E-17   -1.94017979E-17   -2.71288237E-01   -1.68475007E-01    1.69958423E-32    1.28153275E+00    1.28153275E+00   
                   9.00000000E+01    1.54000000E+02   -3.39075480E-17   -1.69928055E-17   -2.70083034E-01   -1.35352413E-01    1.80764382E-32    1.14687134E+00    1.14687134E+00   
                   9.00000000E+01    1.56000000E+02   -3.61355528E-17   -1.44023356E-17   -2.62746527E-01   -1.04721344E-01    1.90155005E-32    1.00533852E+00    1.00533852E+00   
                   9.00000000E+01    1.58000000E+02   -3.79343015E-17   -1.17373556E-17   -2.50299967E-01   -7.74459951E-02    1.98143610E-32    8.62655652E-01    8.62655652E-01   
                   9.00000000E+01    1.60000000E+02   -3.93324549E-17   -9.09240317E-18   -2.33795456E-01   -5.40460174E-02    2.04795877E-32    7.23587794E-01    7.23587794E-01   
                   9.00000000E+01    1.62000000E+02   -4.03730852E-17   -6.54708352E-18   -2.14233371E-01   -3.47410598E-02    2.10216570E-32    5.91912226E-01    5.91912226E-01   
                   9.00000000E+01    1.64000000E+02   -4.11081073E-17   -4.16535440E-18   -1.92505465E-01   -1.95059695E-02    2.14536430E-32    4.70470301E-01    4.70470301E-01   
                   9.00000000E+01    1.66000000E+02   -4.15933761E-17   -1.99618848E-18   -1.69361377E-01   -8.12815070E-03    2.17900075E-32    3.61274895E-01    3.61274895E-01   
                   9.00000000E+01    1.68000000E+02   -4.18846397E-17   -7.51857397E-20   -1.45394656E-01   -2.60993167E-04    2.20455445E-32    2.65648979E-01    2.65648979E-01   
                   9.00000000E+01    1.70000000E+02   -4.20343954E-17    1.57326039E-18   -1.21043848E-01    4.53042059E-03    2.22345032E-32    1.84375520E-01    1.84375520E-01   
                   9.00000000E+01    1.72000000E+02   -4.20895877E-17    2.93357818E-18   -9.66042746E-02    6.73316628E-03    2.23698898E-32    1.17843923E-01    1.17843923E-01   
                   9.00000000E+01    1.74000000E+02   -4.20900270E-17    3.99667708E-18   -7.22467916E-02    6.86022596E-03    2.24629379E-32    6.61828214E-02    6.61828214E-02   
                   9.00000000E+01    1.76000000E+02   -4.20673762E-17    4.75784358E-18   -4.80405862E-02    5.43341694E-03    2.25227214E-32    2.93728853E-02    2.93728853E-02   
                   9.00000000E+01    1.78000000E+02   -4.20445513E-17    5.21500477E-18   -2.39779843E-02    2.97411433E-03    2.25558884E-32    7.33611000E-03    7.33611000E-03   
                   9.00000000E+01    1.80000000E+02   -4.20353995E-17    5.36744233E-18   -8.40707991E-17    1.07348847E-17    2.25664905E-32    9.02659618E-32    1.12832452E-31   
                   9.00000000E+01    1.82000000E+02   -4.20445509E-17    5.21500509E-18    2.39779841E-02   -2.97411451E-03    2.25558881E-32    7.33610990E-03    7.33610990E-03   
                   9.00000000E+01    1.84000000E+02   -4.20673756E-17    4.75784416E-18    4.80405855E-02   -5.43341761E-03    2.25227208E-32    2.93728845E-02    2.93728845E-02   
                   9.00000000E+01    1.86000000E+02   -4.20900262E-17    3.99667779E-18    7.22467901E-02   -6.86022718E-03    2.24629371E-32    6.61828190E-02    6.61828190E-02   
                   9.00000000E+01    1.88000000E+02   -4.20895867E-17    2.93357886E-18    9.66042723E-02   -6.73316783E-03    2.23698888E-32    1.17843917E-01    1.17843917E-01   
                   9.00000000E+01    1.90000000E+02   -4.20343942E-17    1.57326082E-18    1.21043844E-01   -4.53042185E-03    2.22345020E-32    1.84375511E-01    1.84375511E-01   
                   9.00000000E+01    1.92000000E+02   -4.18846385E-17   -7.51857564E-20    1.45394652E-01    2.60993225E-04    2.20455433E-32    2.65648964E-01    2.65648964E-01   
                   9.00000000E+01    1.94000000E+02   -4.15933748E-17   -1.99618915E-18    1.69361372E-01    8.12815341E-03    2.17900062E-32    3.61274875E-01    3.61274875E-01   
                   9.00000000E+01    1.96000000E+02   -4.11081061E-17   -4.16535587E-18    1.92505459E-01    1.95059763E-02    2.14536418E-32    4.70470276E-01    4.70470276E-01   
                   9.00000000E+01    1.98000000E+02   -4.03730838E-17   -6.54708588E-18    2.14233363E-01    3.47410724E-02    2.10216560E-32    5.91912197E-01    5.91912197E-01   
                   9.00000000E+01    2.00000000E+02   -3.93324533E-17   -9.09240644E-18    2.33795446E-01    5.40460368E-02    2.04795868E-32    7.23587765E-01    7.23587765E-01   
                   9.00000000E+01    2.02000000E+02   -3.79342996E-17   -1.17373597E-17    2.50299954E-01    7.74460219E-02    1.98143604E-32    8.62655624E-01    8.62655624E-01   
                   9.00000000E+01    2.04000000E+02   -3.61355505E-17   -1.44023403E-17    2.62746510E-01    1.04721378E-01    1.90155000E-32    1.00533850E+00    1.00533850E+00   
                   9.00000000E+01    2.06000000E+02   -3.39075452E-17   -1.69928105E-17    2.70083012E-01    1.35352454E-01    1.80764380E-32    1.14687132E+00    1.14687132E+00   
                   9.00000000E+01    2.08000000E+02   -3.12418980E-17   -1.94018030E-17    2.71288209E-01    1.68475052E-01    1.69958422E-32    1.28153274E+00    1.28153274E+00   
                   9.00000000E+01    2.10000000E+02   -2.81560867E-17   -2.15145293E-17    2.65479390E-01    2.02857172E-01    1.57788400E-32    1.40278820E+00    1.40278820E+00   
                   9.00000000E+01    2.12000000E+02   -2.46980081E-17   -2.32152317E-17    2.52040479E-01    2.36908907E-01    1.44379881E-32    1.50356918E+00    1.50356918E+00   
                   9.00000000E+01    2.14000000E+02   -2.09486038E-17   -2.43961364E-17    2.30760603E-01    2.68737105E-01    1.29938216E-32    1.57670362E+00    1.57670362E+00   
                   9.00000000E+01    2.16000000E+02   -1.70216222E-17   -2.49679996E-17    2.01967333E-01    2.96253803E-01    1.14748133E-32    1.61549641E+00    1.61549641E+00   
                   9.00000000E+01    2.18000000E+02   -1.30596952E-17   -2.48713157E-17    1.66633386E-01    3.17342134E-01    9.91660034E-33    1.61443576E+00    1.61443576E+00   
                   9.00000000E+01    2.20000000E+02   -9.22621187E-18   -2.40868455E-17    1.26431735E-01    3.30074976E-01    8.36039518E-33    1.56997290E+00    1.56997290E+00   
                   9.00000000E+01    2.22000000E+02   -5.69297844E-18   -2.26438069E-17    8.37136196E-02    3.32970703E-01    6.85058198E-33    1.48129184E+00    1.48129184E+00   
                   9.00000000E+01    2.24000000E+02   -2.62434237E-18   -2.06239492E-17    4.13882267E-02    3.25258128E-01    5.43161835E-33    1.35095817E+00    1.35095817E+00   
                   9.00000000E+01    2.26000000E+02   -1.59243760E-19   -1.81599150E-17    2.69304980E-03    3.07111282E-01    4.14448793E-33    1.18531778E+00    1.18531778E+00   
                   9.00000000E+01    2.28000000E+02    1.60658863E-18   -1.54268333E-17   -2.91397886E-02    2.79806947E-01    3.02307056E-33    9.94515824E-01    9.94515824E-01   
                   9.00000000E+01    2.30000000E+02    2.63553520E-18   -1.26270042E-17   -5.12949292E-02    2.45757024E-01    2.09088424E-33    7.92029243E-01    7.92029243E-01   
                   9.00000000E+01    2.32000000E+02    2.95716717E-18   -9.96873211E-18   -6.18137635E-02    2.08376738E-01    1.35868174E-33    5.93658046E-01    5.93658046E-01   
                   9.00000000E+01    2.34000000E+02    2.66900544E-18   -7.64167270E-18   -5.99939646E-02    1.71769692E-01    8.23332916E-34    4.15998423E-01    4.15998423E-01   
                   9.00000000E+01    2.36000000E+02    1.92747260E-18   -5.79220663E-18   -4.66680785E-02    1.40241243E-01    4.68283392E-34    2.74518848E-01    2.74518848E-01   
                   9.00000000E+01    2.38000000E+02    9.29131025E-19   -4.50303026E-18   -2.42832539E-02    1.17688705E-01    2.65660187E-34    1.81462259E-01    1.81462259E-01   
                   9.00000000E+01    2.40000000E+02   -1.15796124E-19   -3.78108606E-18    3.27547126E-03    1.06953828E-01    1.79825021E-34    1.43883059E-01    1.43883059E-01   
                   9.00000000E+01    2.42000000E+02   -1.01376451E-18   -3.55697447E-18    3.11373653E-02    1.09251027E-01    1.71905259E-34    1.62173065E-01    1.62173065E-01   
                   9.00000000E+01    2.44000000E+02   -1.61689577E-18   -3.69712640E-18    5.41401425E-02    1.23794591E-01    2.04619413E-34    2.29414875E-01    2.29414875E-01   
                   9.00000000E+01    2.46000000E+02   -1.84498085E-18   -4.02753970E-18    6.76749383E-02    1.47732428E-01    2.46615405E-34    3.31812096E-01    3.31812096E-01   
                   9.00000000E+01    2.48000000E+02   -1.69567461E-18   -4.36528736E-18    6.85412633E-02    1.76450310E-01    2.75593653E-34    4.50285940E-01    4.50285940E-01   
                   9.00000000E+01    2.50000000E+02   -1.24010597E-18   -4.55191624E-18    5.56431968E-02    2.04243168E-01    2.79699818E-34    5.63117125E-01    5.63117125E-01   
                   9.00000000E+01    2.52000000E+02   -6.04103673E-19   -4.48188824E-18    3.03636923E-02    2.25270399E-01    2.57010722E-34    6.49288114E-01    6.49288114E-01   
                   9.00000000E+01    2.54000000E+02    6.14829767E-20   -4.11978517E-18   -3.50168916E-03    2.34637421E-01    2.13331860E-34    6.91992091E-01    6.91992091E-01   
                   9.00000000E+01    2.56000000E+02    6.15118276E-19   -3.50216764E-18   -4.02908766E-02    2.29395564E-01    1.58883518E-34    6.81671316E-01    6.81671316E-01   
                   9.00000000E+01    2.58000000E+02    9.55845445E-19   -2.72337162E-18   -7.34399382E-02    2.09243287E-01    1.04682812E-34    6.17966076E-01    6.17966076E-01   
                   9.00000000E+01    2.60000000E+02    1.04411756E-18   -1.90837962E-18   -9.67051881E-02    1.76752328E-01    5.94652505E-35    5.10110189E-01    5.10110189E-01   
                   9.00000000E+01    2.62000000E+02    9.07100311E-19   -1.17922702E-18   -1.05407601E-01    1.37029489E-01    2.78144970E-35    3.75581715E-01    3.75581715E-01   
                   9.00000000E+01    2.64000000E+02    6.27087660E-19   -6.23254738E-19   -9.74377355E-02    9.68421708E-02    9.82294847E-36    2.37159060E-01    2.37159060E-01   
                   9.00000000E+01    2.66000000E+02    3.15960711E-19   -2.71283598E-19   -7.37918670E-02    6.33576341E-02    2.17933491E-36    1.18870696E-01    1.18870696E-01   
                   9.00000000E+01    2.68000000E+02    8.23218585E-20   -9.13947926E-20   -3.84990936E-02    4.27421920E-02    1.90127887E-37    4.15830652E-02    4.15830652E-02   
                   9.00000000E+01    2.70000000E+02   -2.33175122E-35   -4.37683140E-34    2.07299973E-03    3.89113995E-02    2.41412844E-66    1.90807060E-02    1.90807060E-02   
                   9.00000000E+01    2.72000000E+02    8.64058597E-20    1.12690299E-19    4.04090401E-02    5.27013655E-02    2.53401818E-37    5.54217716E-02    5.54217716E-02   
                   9.00000000E+01    2.74000000E+02    2.96702461E-19    3.49593157E-19    6.92941487E-02    8.16466441E-02    2.64205084E-36    1.44109298E-01    1.44109298E-01   
                   9.00000000E+01    2.76000000E+02    5.35583610E-19    7.74998496E-19    8.32197115E-02    1.20420323E-01    1.11523080E-35    2.69254276E-01    2.69254276E-01   
                   9.00000000E+01    2.78000000E+02    6.83748893E-19    1.39280322E-18    7.94535399E-02    1.61847642E-01    3.02524483E-35    4.08501597E-01    4.08501597E-01   
                   9.00000000E+01    2.80000000E+02    6.32216383E-19    2.14081751E-18    5.85552877E-02    1.98280507E-01    6.26156758E-35    5.37135452E-01    5.37135452E-01   
                   9.00000000E+01    2.82000000E+02    3.15499521E-19    2.90301992E-18    2.42405981E-02    2.23046105E-01    1.07154254E-34    6.32555554E-01    6.32555554E-01   
                   9.00000000E+01    2.84000000E+02   -2.65056618E-19    3.53696692E-18   -1.73614797E-02    2.31674953E-01    1.58089843E-34    6.78266145E-01    6.78266145E-01   
                   9.00000000E+01    2.86000000E+02   -1.03395342E-18    3.90968679E-18   -5.88875761E-02    2.22671519E-01    2.05519353E-34    6.66650386E-01    6.66650386E-01   
                   9.00000000E+01    2.88000000E+02   -1.85234828E-18    3.93330605E-18   -9.31034453E-02    1.97697349E-01    2.37530676E-34    6.00075528E-01    6.00075528E-01   
                   9.00000000E+01    2.90000000E+02   -2.54464654E-18    3.59183875E-18   -1.14177556E-01    1.61164768E-01    2.43492677E-34    4.90221614E-01    4.90221614E-01   
                   9.00000000E+01    2.92000000E+02   -2.93481322E-18    2.95285475E-18   -1.18628777E-01    1.19358038E-01    2.17806365E-34    3.55868659E-01    3.55868659E-01   
                   9.00000000E+01    2.94000000E+02   -2.88426914E-18    2.16143215E-18   -1.05796619E-01    7.92825507E-02    1.63247175E-34    2.19643163E-01    2.19643163E-01   
                   9.00000000E+01    2.96000000E+02   -2.32319589E-18    1.41788254E-18   -7.77898975E-02    4.74763828E-02    9.30870241E-35    1.04367165E-01    1.04367165E-01   
                   9.00000000E+01    2.98000000E+02   -1.26891161E-18    9.44200220E-19   -3.89741049E-02    2.90007265E-02    3.14366701E-35    2.96569235E-02    2.96569235E-02   
                   9.00000000E+01    3.00000000E+02    1.71914268E-19    9.46268525E-19    4.86285917E-03    2.67666590E-02    1.16236244E-35    9.30038889E-03    9.30038889E-03   
                   9.00000000E+01    3.02000000E+02    1.81691219E-18    1.57922233E-18    4.74858108E-02    4.12736804E-02    7.28235386E-35    4.97429591E-02    4.97429591E-02   
                   9.00000000E+01    3.04000000E+02    3.43412809E-18    2.92213217E-18    8.31473087E-02    7.07508336E-02    2.55500605E-34    1.49780524E-01    1.49780524E-01   
                   9.00000000E+01    3.06000000E+02    4.77514568E-18    4.96581526E-18    1.07335833E-01    1.11621707E-01    5.96416756E-34    3.01346424E-01    3.01346424E-01   
                   9.00000000E+01    3.08000000E+02    5.60904585E-18    7.61475454E-18    1.17246071E-01    1.59171467E-01    1.12401010E-33    4.91121372E-01    4.91121372E-01   
                   9.00000000E+01    3.10000000E+02    5.75161396E-18    1.07014767E-17    1.11942588E-01    2.08280841E-01    1.85482980E-33    7.02611563E-01    7.02611563E-01   
                   9.00000000E+01    3.12000000E+02    5.08575157E-18    1.40098086E-17    9.22437284E-02    2.54105408E-01    2.79148861E-33    9.18331061E-01    9.18331061E-01   
                   9.00000000E+01    3.14000000E+02    3.57108735E-18    1.73024619E-17    6.03924203E-02    2.92610471E-01    3.92231428E-33    1.12177643E+00    1.12177643E+00   
                   9.00000000E+01    3.16000000E+02    1.24282984E-18    2.03483958E-17    1.96005384E-02    3.20912404E-01    5.22260673E-33    1.29897256E+00    1.29897256E+00   
                   9.00000000E+01    3.18000000E+02   -1.79842702E-18    2.29461940E-17   -2.64453549E-02    3.37417220E-01    6.65718764E-33    1.43947445E+00    1.43947445E+00   
                   9.00000000E+01    3.20000000E+02   -5.40317124E-18    2.49409549E-17   -7.40425566E-02    3.41779296E-01    8.18379219E-33    1.53680916E+00    1.53680916E+00   
                   9.00000000E+01    3.22000000E+02   -9.39254183E-18    2.62336074E-17   -1.19842847E-01    3.34724109E-01    9.75680662E-33    1.58842113E+00    1.58842113E+00   