##File Type: Far field
##File Format: 5
##Source: Thin_wire_XY_rad_theta450.008
##Date: 2020-09-16 11:26:48
** File exported by POSTFEKO version 2018-319328 (x64)

#Configuration Name: StandardConfiguration1
#Request Name: FarField1
#Frequency: 3.00000000E+08
#Coordinate System: Spherical
#No. of Theta Samples: 1
#No. of Phi Samples: 181
#Result Type: RCS
#Incident Wave Direction: (4.50000000E+01, 0.00000000E+00)
#No. of Header Lines: 1
#                 "Theta"           "Phi"             "Re(Etheta)"      "Im(Etheta)"      "Re(Ephi)"        "Im(Ephi)"        "RCS(Theta)"      "RCS(Phi)"        "RCS(Total)"      
                   9.00000000E+01    0.00000000E+00   -3.02259618E-17    1.78608259E-17    0.00000000E+00    0.00000000E+00    1.54895329E-32    0.00000000E+00    1.54895329E-32   
                   9.00000000E+01    2.00000000E+00   -3.01504147E-17    1.79617652E-17    1.71947648E-02   -1.02435847E-02    1.54776533E-32    5.03397452E-03    5.03397452E-03   
                   9.00000000E+01    4.00000000E+00   -2.99209162E-17    1.82619796E-17    3.41694321E-02   -2.08550256E-02    1.54410677E-32    2.01373850E-02    2.01373850E-02   
                   9.00000000E+01    6.00000000E+00   -2.95290633E-17    1.87535103E-17    5.06861181E-02   -3.21900708E-02    1.53769616E-32    4.53053252E-02    4.53053252E-02   
                   9.00000000E+01    8.00000000E+00   -2.89614337E-17    1.94226207E-17    6.64724566E-02   -4.45789157E-02    1.52807423E-32    8.04985014E-02    8.04985014E-02   
                   9.00000000E+01    1.00000000E+01   -2.82004936E-17    2.02491489E-17    8.12072167E-02   -5.83102211E-02    1.51461946E-32    1.25597028E-01    1.25597028E-01   
                   9.00000000E+01    1.20000000E+01   -2.72259310E-17    2.12057240E-17    9.45097033E-02   -7.36116858E-02    1.49657186E-32    1.80337023E-01    1.80337023E-01   
                   9.00000000E+01    1.40000000E+01   -2.60164541E-17    2.22569744E-17    1.05934716E-01   -9.06267338E-02    1.47306615E-32    2.44232049E-01    2.44232049E-01   
                   9.00000000E+01    1.60000000E+01   -2.45520849E-17    2.33588976E-17    1.14975143E-01   -1.09387557E-01    1.44317600E-32    3.16483055E-01    3.16483055E-01   
                   9.00000000E+01    1.80000000E+01   -2.28169378E-17    2.44585983E-17    1.21074460E-01   -1.29785671E-01    1.40597038E-32    3.95882713E-01    3.95882713E-01   
                   9.00000000E+01    2.00000000E+01   -2.08024187E-17    2.54946323E-17    1.23651345E-01   -1.51542262E-01    1.36058218E-32    4.80722892E-01    4.80722892E-01   
                   9.00000000E+01    2.20000000E+01   -1.85106971E-17    2.63982033E-17    1.22138189E-01   -1.74181919E-01    1.30628811E-32    5.68717214E-01    5.68717214E-01   
                   9.00000000E+01    2.40000000E+01   -1.59582033E-17    2.70954437E-17    1.16034270E-01   -1.97014662E-01    1.24259706E-32    6.56953883E-01    6.56953883E-01   
                   9.00000000E+01    2.60000000E+01   -1.31787912E-17    2.75109477E-17    1.04972731E-01   -2.19132337E-01    1.16934198E-32    7.41896596E-01    7.41896596E-01   
                   9.00000000E+01    2.80000000E+01   -1.02261014E-17    2.75726165E-17    8.87980852E-02   -2.39426099E-01    1.08676779E-32    8.19452484E-01    8.19452484E-01   
                   9.00000000E+01    3.00000000E+01   -7.17458130E-18    2.72177031E-17    6.76480181E-02   -2.56631515E-01    9.95605868E-33    8.85124742E-01    8.85124742E-01   
                   9.00000000E+01    3.20000000E+01   -4.11859755E-18    2.63997256E-17    4.20298388E-02   -2.69406321E-01    8.97123699E-33    9.34262820E-01    9.34262820E-01   
                   9.00000000E+01    3.40000000E+01   -1.16914245E-18    2.50956608E-17    1.28787589E-02   -2.76442758E-01    7.93137898E-33    9.62413853E-01    9.62413853E-01   
                   9.00000000E+01    3.60000000E+01    1.55218388E-18    2.33125698E-17   -1.84171894E-02   -2.76611565E-01    6.85979557E-33    9.65765179E-01    9.65765179E-01   
                   9.00000000E+01    3.80000000E+01    3.92192850E-18    2.10926025E-17   -5.00413077E-02   -2.69128163E-01    5.78404157E-33    9.41649679E-01    9.41649679E-01   
                   9.00000000E+01    4.00000000E+01    5.82586527E-18    1.85152283E-17   -7.98349597E-02   -2.53724115E-01    4.73443524E-33    8.89065031E-01    8.89065031E-01   
                   9.00000000E+01    4.20000000E+01    7.17148383E-18    1.56956206E-17   -1.05454618E-01   -2.30799612E-01    3.74204761E-33    8.09137762E-01    8.09137762E-01   
                   9.00000000E+01    4.40000000E+01    7.90046519E-18    1.27784274E-17   -1.24597403E-01   -2.01527231E-01    2.83629968E-33    7.05447616E-01    7.05447616E-01   
                   9.00000000E+01    4.60000000E+01    7.99931469E-18    9.92671397E-18   -1.35280358E-01   -1.67875558E-01    2.04239570E-33    5.84122330E-01    5.84122330E-01   
                   9.00000000E+01    4.80000000E+01    7.50614155E-18    7.30663064E-18   -1.36143985E-01   -1.32525320E-01    1.37889544E-33    4.53622667E-01    4.53622667E-01   
                   9.00000000E+01    5.00000000E+01    6.51173162E-18    5.06924723E-18   -1.26736616E-01   -9.86618118E-02    8.55768785E-34    3.24166154E-01    3.24166154E-01   
                   9.00000000E+01    5.20000000E+01    5.15363132E-18    3.33184762E-18   -1.07726526E-01   -6.96457212E-02    4.73263646E-34    2.06786301E-01    2.06786301E-01   
                   9.00000000E+01    5.40000000E+01    3.60294453E-18    2.16159104E-18   -8.09870684E-02   -4.85882922E-02    2.21842750E-34    1.12088600E-01    1.12088600E-01   
                   9.00000000E+01    5.60000000E+01    2.04483383E-18    1.56461300E-18   -4.95096352E-02   -3.78825006E-02    8.33069846E-35    4.88365333E-02    4.88365333E-02   
                   9.00000000E+01    5.80000000E+01    6.55100992E-19    1.48319870E-18   -1.71213567E-02   -3.87640600E-02    3.30374370E-35    2.25666029E-02    2.25666029E-02   
                   9.00000000E+01    6.00000000E+01   -4.23603056E-19    1.80256478E-18    1.19822632E-02   -5.09883142E-02    4.30860554E-35    3.44743652E-02    3.44743652E-02   
                   9.00000000E+01    6.20000000E+01   -1.10174749E-18    2.36713343E-18    3.38397268E-02   -7.27055423E-02    8.56670619E-35    8.08171316E-02    8.08171316E-02   
                   9.00000000E+01    6.40000000E+01   -1.35504545E-18    3.00425261E-18    4.53723456E-02   -1.00594403E-01    1.36491921E-34    1.53031799E-01    1.53031799E-01   
                   9.00000000E+01    6.60000000E+01   -1.22580721E-18    3.55151890E-18    4.49633000E-02   -1.30271717E-01    1.77385503E-34    2.38665770E-01    2.38665770E-01   
                   9.00000000E+01    6.80000000E+01   -8.12533740E-19    3.88266474E-18    3.28436179E-02   -1.56942107E-01    1.97735568E-34    3.23075459E-01    3.23075459E-01   
                   9.00000000E+01    7.00000000E+01   -2.49196357E-19    3.92678449E-18    1.11813686E-02   -1.76193687E-01    1.94549223E-34    3.91684199E-01    3.91684199E-01   
                   9.00000000E+01    7.20000000E+01    3.21958400E-19    3.67669802E-18   -1.61823976E-02   -1.84799617E-01    1.71176154E-34    4.32443601E-01    4.32443601E-01   
                   9.00000000E+01    7.40000000E+01    7.78507786E-19    3.18439958E-18   -4.43389767E-02   -1.81363657E-01    1.35044189E-34    4.38047606E-01    4.38047606E-01   
                   9.00000000E+01    7.60000000E+01    1.04075098E-18    2.54439701E-18   -6.81702541E-02   -1.66660608E-01    9.49655550E-35    4.07438704E-01    4.07438704E-01   
                   9.00000000E+01    7.80000000E+01    1.08424397E-18    1.86864119E-18   -8.33051098E-02   -1.43572263E-01    5.86523396E-35    3.46237892E-01    3.46237892E-01   
                   9.00000000E+01    8.00000000E+01    9.39126189E-19    1.25890961E-18   -8.69809856E-02   -1.16599026E-01    3.09988663E-35    2.65917278E-01    2.65917278E-01   
                   9.00000000E+01    8.20000000E+01    6.76583323E-19    7.83291559E-19   -7.86208806E-02   -9.10206771E-02    1.34624868E-35    1.81785199E-01    1.81785199E-01   
                   9.00000000E+01    8.40000000E+01    3.86049401E-19    4.62506100E-19   -5.99848822E-02   -7.18648284E-02    4.56091436E-36    1.10115834E-01    1.10115834E-01   
                   9.00000000E+01    8.60000000E+01    1.49186072E-19    2.69307457E-19   -3.48420496E-02   -6.28961113E-02    1.19107819E-36    6.49667441E-02    6.49667441E-02   
                   9.00000000E+01    8.80000000E+01    1.75648115E-20    1.40798563E-19   -8.21445645E-03   -6.58466312E-02    2.52995698E-37    5.53329486E-02    5.53329486E-02   
                   9.00000000E+01    9.00000000E+01   -5.49470131E-35    3.00189391E-34    1.46548837E-02   -8.00633261E-02    1.17034184E-66    8.32509712E-02    8.32509712E-02   
                   9.00000000E+01    9.20000000E+01    6.28444421E-20   -2.19513428E-19    2.93901778E-02   -1.02658859E-01    6.55154883E-37    1.43289597E-01    1.43289597E-01   
                   9.00000000E+01    9.40000000E+01    1.42964211E-19   -5.52948949E-19    3.33889488E-02   -1.29139902E-01    4.09904085E-36    2.23580064E-01    2.23580064E-01   
                   9.00000000E+01    9.60000000E+01    1.69557578E-19   -9.93540127E-19    2.63460876E-02   -1.54377619E-01    1.27658210E-35    3.08209914E-01    3.08209914E-01   
                   9.00000000E+01    9.80000000E+01    8.84818346E-20   -1.49486077E-18    1.02818375E-02   -1.73707016E-01    2.81793039E-35    3.80507737E-01    3.80507737E-01   
                   9.00000000E+01    1.00000000E+02   -1.17984674E-19   -1.98570481E-18   -1.09276297E-02   -1.83914115E-01    4.97244245E-35    4.26550555E-01    4.26550555E-01   
                   9.00000000E+01    1.02000000E+02   -4.21786541E-19   -2.39350638E-18   -3.24068892E-02   -1.83898936E-01    7.42267449E-35    4.38177094E-01    4.38177094E-01   
                   9.00000000E+01    1.04000000E+02   -7.53146387E-19   -2.66987847E-18   -4.93318591E-02   -1.74879772E-01    9.67042602E-35    4.14898417E-01    4.14898417E-01   
                   9.00000000E+01    1.06000000E+02   -1.01740744E-18   -2.81122267E-18   -5.79452200E-02   -1.60109813E-01    1.12319361E-34    3.64334281E-01    3.64334281E-01   
                   9.00000000E+01    1.08000000E+02   -1.12062979E-18   -2.86863336E-18   -5.63255274E-02   -1.44184359E-01    1.19190373E-34    3.01111532E-01    3.01111532E-01   
                   9.00000000E+01    1.10000000E+02   -9.97624711E-19   -2.94408238E-18   -4.47631328E-02   -1.32100127E-01    1.21427282E-34    2.44468455E-01    2.44468455E-01   
                   9.00000000E+01    1.12000000E+02   -6.35514116E-19   -3.17333200E-18   -2.56882659E-02   -1.28270001E-01    1.31619088E-34    2.15049309E-01    2.15049309E-01   
                   9.00000000E+01    1.14000000E+02   -8.70571891E-20   -3.69925260E-18   -3.19330681E-03   -1.35690672E-01    1.72059359E-34    2.31499637E-01    2.31499637E-01   
                   9.00000000E+01    1.16000000E+02    5.29504835E-19   -4.64141114E-18    1.77299414E-02   -1.55413023E-01    2.74236820E-34    3.07468410E-01    3.07468410E-01   
                   9.00000000E+01    1.18000000E+02    1.04419110E-18   -6.06847999E-18    3.20719059E-02   -1.86390900E-01    4.76476366E-34    4.49501271E-01    4.49501271E-01   
                   9.00000000E+01    1.20000000E+02    1.25974889E-18   -7.97914913E-18    3.56339327E-02   -2.25702492E-01    8.20003285E-34    6.56107701E-01    6.56107701E-01   
                   9.00000000E+01    1.22000000E+02    9.81877625E-19   -1.02951567E-17    2.56618099E-02   -2.69068515E-01    1.34402782E-33    9.18053728E-01    9.18053728E-01   
                   9.00000000E+01    1.24000000E+02    4.93877383E-20   -1.28673834E-17    1.19577879E-03   -3.11545835E-01    2.08063906E-33    1.21972004E+00    1.21972004E+00   
                   9.00000000E+01    1.26000000E+02   -1.64107919E-18   -1.54933496E-17   -3.68882151E-02   -3.48259862E-01    3.05032338E-33    1.54121096E+00    1.54121096E+00   
                   9.00000000E+01    1.28000000E+02   -4.11965588E-18   -1.79424712E-17   -8.61133035E-02   -3.75052070E-01    4.25879121E-33    1.86082258E+00    1.86082258E+00   
                   9.00000000E+01    1.30000000E+02   -7.33900082E-18   -1.99844041E-17   -1.42837602E-01   -3.88952723E-01    5.69554838E-33    2.15747997E+00    2.15747997E+00   
                   9.00000000E+01    1.32000000E+02   -1.11808811E-17   -2.14158008E-17   -2.02795230E-01   -3.88432917E-01    7.33434497E-33    2.41281902E+00    2.41281902E+00   
                   9.00000000E+01    1.34000000E+02   -1.54715068E-17   -2.20816620E-17   -2.61646285E-01   -3.73433881E-01    9.13534074E-33    2.61269475E+00    2.61269475E+00   
                   9.00000000E+01    1.36000000E+02   -2.00024198E-17   -2.18888615E-17   -3.15456052E-01   -3.45206927E-01    1.10485925E-32    2.74801824E+00    2.74801824E+00   
                   9.00000000E+01    1.38000000E+02   -2.45533643E-17   -2.08110074E-17   -3.61050199E-01   -3.06019911E-01    1.30183293E-32    2.81493528E+00    2.81493528E+00   
                   9.00000000E+01    1.40000000E+02   -2.89138527E-17   -1.88852300E-17   -3.96222049E-01   -2.58794447E-01    1.49874427E-32    2.81444576E+00    2.81444576E+00   
                   9.00000000E+01    1.42000000E+02   -3.29009053E-17   -1.62025561E-17   -4.19794580E-01   -2.06734287E-01    1.69016729E-32    2.75161488E+00    2.75161488E+00   
                   9.00000000E+01    1.44000000E+02   -3.63714467E-17   -1.28941100E-17   -4.31559579E-01   -1.52992998E-01    1.87130878E-32    2.63454623E+00    2.63454623E+00   
                   9.00000000E+01    1.46000000E+02   -3.92288623E-17   -9.11550874E-18   -4.32127887E-01   -1.00412434E-01    2.03826045E-32    2.47327747E+00    2.47327747E+00   
                   9.00000000E+01    1.48000000E+02   -4.14240822E-17   -5.03155898E-18   -4.22728242E-01   -5.13465107E-02    2.18814589E-32    2.27873074E+00    2.27873074E+00   
                   9.00000000E+01    1.50000000E+02   -4.29521735E-17   -8.02870440E-19   -4.04989405E-01   -7.57014128E-03    2.31916618E-32    2.06181124E+00    2.06181124E+00   
                   9.00000000E+01    1.52000000E+02   -4.38457428E-17    3.42460136E-18   -3.80733367E-01    2.97374368E-02    2.43055857E-32    1.83270729E+00    1.83270729E+00   
                   9.00000000E+01    1.54000000E+02   -4.41665238E-17    7.52665399E-18   -3.51798625E-01    5.99518887E-02    2.52248822E-32    1.60040900E+00    1.60040900E+00   
                   9.00000000E+01    1.56000000E+02   -4.39963906E-17    1.14046376E-17   -3.19903750E-01    8.29246740E-02    2.59589568E-32    1.37243504E+00    1.37243504E+00   
                   9.00000000E+01    1.58000000E+02   -4.34287850E-17    1.49863628E-17   -2.86553937E-01    9.88837535E-02    2.65232156E-32    1.15473832E+00    1.15473832E+00   
                   9.00000000E+01    1.60000000E+02   -4.25612407E-17    1.82247249E-17   -2.52987633E-01    1.08329314E-01    2.69372696E-32    9.51751559E-01    9.51751559E-01   
                   9.00000000E+01    1.62000000E+02   -4.14893851E-17    2.10947248E-17   -2.20156839E-01    1.11935810E-01    2.72232386E-32    7.66531761E-01    7.66531761E-01   
                   9.00000000E+01    1.64000000E+02   -4.03025397E-17    2.35895363E-17   -1.88733066E-01    1.10467617E-01    2.74042500E-32    6.00964869E-01    6.00964869E-01   
                   9.00000000E+01    1.66000000E+02   -3.90808426E-17    2.57161745E-17   -1.59130754E-01    1.04712027E-01    2.75031846E-32    4.55998473E-01    4.55998473E-01   
                   9.00000000E+01    1.68000000E+02   -3.78936893E-17    2.74911971E-17   -1.31540822E-01    9.54305247E-02    2.75416844E-32    3.31877506E-01    3.31877506E-01   
                   9.00000000E+01    1.70000000E+02   -3.67992128E-17    2.89367350E-17   -1.05968416E-01    8.33273252E-02    2.75394110E-32    2.28365491E-01    2.28365491E-01   
                   9.00000000E+01    1.72000000E+02   -3.58445083E-17    3.00770317E-17   -8.22705309E-02    6.90329838E-02    2.75135232E-32    1.44940432E-01    1.44940432E-01   
                   9.00000000E+01    1.74000000E+02   -3.50663159E-17    3.09355749E-17   -6.01907148E-02    5.31003706E-02    2.74783335E-32    8.09597413E-02    8.09597413E-02   
                   9.00000000E+01    1.76000000E+02   -3.44919138E-17    3.15328333E-17   -3.93894725E-02    3.60102277E-02    2.74451004E-32    3.57923793E-02    3.57923793E-02   
                   9.00000000E+01    1.78000000E+02   -3.41400171E-17    3.18845708E-17   -1.94700328E-02    1.81837531E-02    2.74219145E-32    8.91874343E-03    8.91874343E-03   
                   9.00000000E+01    1.80000000E+02   -3.40215257E-17    3.20006921E-17   -6.80430514E-17    6.40013842E-17    2.74136444E-32    1.09654578E-31    1.37068222E-31   
                   9.00000000E+01    1.82000000E+02   -3.41400163E-17    3.18845718E-17    1.94700324E-02   -1.81837536E-02    2.74219146E-32    8.91874347E-03    8.91874347E-03   
                   9.00000000E+01    1.84000000E+02   -3.44919124E-17    3.15328351E-17    3.93894709E-02   -3.60102298E-02    2.74451006E-32    3.57923795E-02    3.57923795E-02   
                   9.00000000E+01    1.86000000E+02   -3.50663139E-17    3.09355774E-17    6.01907115E-02   -5.31003749E-02    2.74783338E-32    8.09597420E-02    8.09597420E-02   
                   9.00000000E+01    1.88000000E+02   -3.58445061E-17    3.00770346E-17    8.22705258E-02   -6.90329907E-02    2.75135235E-32    1.44940434E-01    1.44940434E-01   
                   9.00000000E+01    1.90000000E+02   -3.67992106E-17    2.89367381E-17    1.05968410E-01   -8.33273344E-02    2.75394113E-32    2.28365493E-01    2.28365493E-01   
                   9.00000000E+01    1.92000000E+02   -3.78936873E-17    2.74912002E-17    1.31540815E-01   -9.54305354E-02    2.75416846E-32    3.31877508E-01    3.31877508E-01   
                   9.00000000E+01    1.94000000E+02   -3.90808410E-17    2.57161771E-17    1.59130748E-01   -1.04712038E-01    2.75031847E-32    4.55998475E-01    4.55998475E-01   
                   9.00000000E+01    1.96000000E+02   -4.03025386E-17    2.35895381E-17    1.88733061E-01   -1.10467626E-01    2.74042500E-32    6.00964870E-01    6.00964870E-01   
                   9.00000000E+01    1.98000000E+02   -4.14893846E-17    2.10947256E-17    2.20156836E-01   -1.11935814E-01    2.72232385E-32    7.66531758E-01    7.66531758E-01   
                   9.00000000E+01    2.00000000E+02   -4.25612406E-17    1.82247245E-17    2.52987632E-01   -1.08329311E-01    2.69372693E-32    9.51751550E-01    9.51751550E-01   
                   9.00000000E+01    2.02000000E+02   -4.34287852E-17    1.49863611E-17    2.86553939E-01   -9.88837421E-02    2.65232152E-32    1.15473830E+00    1.15473830E+00   
                   9.00000000E+01    2.04000000E+02   -4.39963910E-17    1.14046347E-17    3.19903752E-01   -8.29246523E-02    2.59589564E-32    1.37243502E+00    1.37243502E+00   
                   9.00000000E+01    2.06000000E+02   -4.41665241E-17    7.52664997E-18    3.51798627E-01   -5.99518567E-02    2.52248817E-32    1.60040896E+00    1.60040896E+00   
                   9.00000000E+01    2.08000000E+02   -4.38457427E-17    3.42459660E-18    3.80733366E-01   -2.97373955E-02    2.43055852E-32    1.83270725E+00    1.83270725E+00   
                   9.00000000E+01    2.10000000E+02   -4.29521729E-17   -8.02875539E-19    4.04989400E-01    7.57018936E-03    2.31916613E-32    2.06181119E+00    2.06181119E+00   
                   9.00000000E+01    2.12000000E+02   -4.14240811E-17   -5.03156400E-18    4.22728231E-01    5.13465619E-02    2.18814584E-32    2.27873069E+00    2.27873069E+00   
                   9.00000000E+01    2.14000000E+02   -3.92288608E-17   -9.11551328E-18    4.32127871E-01    1.00412484E-01    2.03826041E-32    2.47327742E+00    2.47327742E+00   
                   9.00000000E+01    2.16000000E+02   -3.63714450E-17   -1.28941138E-17    4.31559558E-01    1.52993043E-01    1.87130874E-32    2.63454618E+00    2.63454618E+00   
                   9.00000000E+01    2.18000000E+02   -3.29009036E-17   -1.62025589E-17    4.19794557E-01    2.06734324E-01    1.69016726E-32    2.75161483E+00    2.75161483E+00   
                   9.00000000E+01    2.20000000E+02   -2.89138512E-17   -1.88852319E-17    3.96222028E-01    2.58794472E-01    1.49874425E-32    2.81444572E+00    2.81444572E+00   
                   9.00000000E+01    2.22000000E+02   -2.45533632E-17   -2.08110084E-17    3.61050183E-01    3.06019926E-01    1.30183291E-32    2.81493525E+00    2.81493525E+00   
                   9.00000000E+01    2.24000000E+02   -2.00024192E-17   -2.18888619E-17    3.15456043E-01    3.45206933E-01    1.10485924E-32    2.74801822E+00    2.74801822E+00   
                   9.00000000E+01    2.26000000E+02   -1.54715067E-17   -2.20816620E-17    2.61646283E-01    3.73433882E-01    9.13534071E-33    2.61269474E+00    2.61269474E+00   
                   9.00000000E+01    2.28000000E+02   -1.11808814E-17   -2.14158007E-17    2.02795236E-01    3.88432915E-01    7.33434499E-33    2.41281902E+00    2.41281902E+00   
                   9.00000000E+01    2.30000000E+02   -7.33900141E-18   -1.99844040E-17    1.42837613E-01    3.88952721E-01    5.69554843E-33    2.15747999E+00    2.15747999E+00   
                   9.00000000E+01    2.32000000E+02   -4.11965657E-18   -1.79424712E-17    8.61133179E-02    3.75052070E-01    4.25879130E-33    1.86082262E+00    1.86082262E+00   
                   9.00000000E+01    2.34000000E+02   -1.64107983E-18   -1.54933498E-17    3.68882295E-02    3.48259866E-01    3.05032349E-33    1.54121102E+00    1.54121102E+00   
                   9.00000000E+01    2.36000000E+02    4.93872603E-20   -1.28673838E-17   -1.19576721E-03    3.11545844E-01    2.08063919E-33    1.21972011E+00    1.21972011E+00   
                   9.00000000E+01    2.38000000E+02    9.81877371E-19   -1.02951572E-17   -2.56618032E-02    2.69068528E-01    1.34402794E-33    9.18053811E-01    9.18053811E-01   
                   9.00000000E+01    2.40000000E+02    1.25974887E-18   -7.97914969E-18   -3.56339323E-02    2.25702507E-01    8.20003396E-34    6.56107789E-01    6.56107789E-01   
                   9.00000000E+01    2.42000000E+02    1.04419131E-18   -6.06848054E-18   -3.20719123E-02    1.86390917E-01    4.76476456E-34    4.49501355E-01    4.49501355E-01   
                   9.00000000E+01    2.44000000E+02    5.29505225E-19   -4.64141163E-18   -1.77299544E-02    1.55413040E-01    2.74236882E-34    3.07468480E-01    3.07468480E-01   
                   9.00000000E+01    2.46000000E+02   -8.70566800E-20   -3.69925299E-18    3.19328814E-03    1.35690686E-01    1.72059394E-34    2.31499683E-01    2.31499683E-01   
                   9.00000000E+01    2.48000000E+02   -6.35513561E-19   -3.17333225E-18    2.56882435E-02    1.28270011E-01    1.31619098E-34    2.15049326E-01    2.15049326E-01   
                   9.00000000E+01    2.50000000E+02   -9.97624189E-19   -2.94408247E-18    4.47631094E-02    1.32100131E-01    1.21427276E-34    2.44468442E-01    2.44468442E-01   
                   9.00000000E+01    2.52000000E+02   -1.12062937E-18   -2.86863333E-18    5.63255063E-02    1.44184357E-01    1.19190358E-34    3.01111496E-01    3.01111496E-01   
                   9.00000000E+01    2.54000000E+02   -1.01740717E-18   -2.81122255E-18    5.79452043E-02    1.60109807E-01    1.12319346E-34    3.64334232E-01    3.64334232E-01   
                   9.00000000E+01    2.56000000E+02   -7.53146262E-19   -2.66987833E-18    4.93318510E-02    1.74879763E-01    9.67042487E-35    4.14898368E-01    4.14898368E-01   
                   9.00000000E+01    2.58000000E+02   -4.21786534E-19   -2.39350628E-18    3.24068888E-02    1.83898928E-01    7.42267386E-35    4.38177057E-01    4.38177057E-01   
                   9.00000000E+01    2.60000000E+02   -1.17984730E-19   -1.98570477E-18    1.09276349E-02    1.83914110E-01    4.97244224E-35    4.26550537E-01    4.26550537E-01   
                   9.00000000E+01    2.62000000E+02    8.84817730E-20   -1.49486078E-18   -1.02818303E-02    1.73707017E-01    2.81793041E-35    3.80507739E-01    3.80507739E-01   
                   9.00000000E+01    2.64000000E+02    1.69557546E-19   -9.93540160E-19   -2.63460827E-02    1.54377624E-01    1.27658217E-35    3.08209931E-01    3.08209931E-01   
                   9.00000000E+01    2.66000000E+02    1.42964212E-19   -5.52948977E-19   -3.33889492E-02    1.29139908E-01    4.09904123E-36    2.23580085E-01    2.23580085E-01   
                   9.00000000E+01    2.68000000E+02    6.28444556E-20   -2.19513436E-19   -2.93901842E-02    1.02658862E-01    6.55154949E-37    1.43289611E-01    1.43289611E-01   
                   9.00000000E+01    2.70000000E+02    1.64841157E-34   -9.00568152E-34   -1.46548942E-02    8.00633241E-02    1.05330766E-65    8.32509712E-02    8.32509712E-02   
                   9.00000000E+01    2.72000000E+02    1.75647879E-20    1.40798545E-19    8.21444543E-03    6.58466229E-02    2.52995624E-37    5.53329324E-02    5.53329324E-02   
                   9.00000000E+01    2.74000000E+02    1.49186038E-19    2.69307403E-19    3.48420416E-02    6.28960987E-02    1.19107769E-36    6.49667172E-02    6.49667172E-02   
                   9.00000000E+01    2.76000000E+02    3.86049380E-19    4.62506021E-19    5.99848789E-02    7.18648161E-02    4.56091324E-36    1.10115807E-01    1.10115807E-01   
                   9.00000000E+01    2.78000000E+02    6.76583325E-19    7.83291500E-19    7.86208808E-02    9.10206702E-02    1.34624857E-35    1.81785184E-01    1.81785184E-01   
                   9.00000000E+01    2.80000000E+02    9.39126188E-19    1.25890963E-18    8.69809855E-02    1.16599028E-01    3.09988670E-35    2.65917284E-01    2.65917284E-01   
                   9.00000000E+01    2.82000000E+02    1.08424389E-18    1.86864135E-18    8.33051043E-02    1.43572275E-01    5.86523448E-35    3.46237924E-01    3.46237924E-01   
                   9.00000000E+01    2.84000000E+02    1.04075074E-18    2.54439729E-18    6.81702389E-02    1.66660627E-01    9.49655670E-35    4.07438756E-01    4.07438756E-01   
                   9.00000000E+01    2.86000000E+02    7.78507323E-19    3.18439993E-18    4.43389504E-02    1.81363677E-01    1.35044207E-34    4.38047667E-01    4.38047667E-01   
                   9.00000000E+01    2.88000000E+02    3.21957699E-19    3.67669832E-18    1.61823623E-02    1.84799632E-01    1.71176176E-34    4.32443657E-01    4.32443657E-01   
                   9.00000000E+01    2.90000000E+02   -2.49197221E-19    3.92678462E-18   -1.11814074E-02    1.76193693E-01    1.94549242E-34    3.91684236E-01    3.91684236E-01   
                   9.00000000E+01    2.92000000E+02   -8.12534609E-19    3.88266463E-18   -3.28436530E-02    1.56942103E-01    1.97735575E-34    3.23075472E-01    3.23075472E-01   
                   9.00000000E+01    2.94000000E+02   -1.22580789E-18    3.55151856E-18   -4.49633250E-02    1.30271704E-01    1.77385493E-34    2.38665757E-01    2.38665757E-01   
                   9.00000000E+01    2.96000000E+02   -1.35504577E-18    3.00425213E-18   -4.53723562E-02    1.00594387E-01    1.36491895E-34    1.53031771E-01    1.53031771E-01   
                   9.00000000E+01    2.98000000E+02   -1.10174733E-18    2.36713297E-18   -3.38397221E-02    7.27055282E-02    8.56670303E-35    8.08171018E-02    8.08171018E-02   
                   9.00000000E+01    3.00000000E+02   -4.23602428E-19    1.80256452E-18   -1.19822455E-02    5.09883068E-02    4.30860369E-35    3.44743504E-02    3.44743504E-02   
                   9.00000000E+01    3.02000000E+02    6.55101996E-19    1.48319878E-18    1.71213830E-02    3.87640619E-02    3.30374563E-35    2.25666161E-02    2.25666161E-02   
                   9.00000000E+01    3.04000000E+02    2.04483504E-18    1.56461347E-18    4.95096646E-02    3.78825120E-02    8.33070654E-35    4.88365806E-02    4.88365806E-02   
                   9.00000000E+01    3.06000000E+02    3.60294575E-18    2.16159188E-18    8.09870960E-02    4.85883110E-02    2.21842906E-34    1.12088679E-01    1.12088679E-01   
                   9.00000000E+01    3.08000000E+02    5.15363238E-18    3.33184870E-18    1.07726549E-01    6.96457439E-02    4.73263874E-34    2.06786400E-01    2.06786400E-01   
                   9.00000000E+01    3.10000000E+02    6.51173237E-18    5.06924840E-18    1.26736631E-01    9.86618346E-02    8.55769058E-34    3.24166258E-01    3.24166258E-01   
                   9.00000000E+01    3.12000000E+02    7.50614192E-18    7.30663172E-18    1.36143991E-01    1.32525339E-01    1.37889570E-33    4.53622756E-01    4.53622756E-01   
                   9.00000000E+01    3.14000000E+02    7.99931464E-18    9.92671480E-18    1.35280357E-01    1.67875572E-01    2.04239590E-33    5.84122386E-01    5.84122386E-01   
                   9.00000000E+01    3.16000000E+02    7.90046473E-18    1.27784279E-17    1.24597396E-01    2.01527238E-01    2.83629974E-33    7.05447630E-01    7.05447630E-01   
                   9.00000000E+01    3.18000000E+02    7.17148297E-18    1.56956206E-17    1.05454606E-01    2.30799612E-01    3.74204746E-33    8.09137731E-01    8.09137731E-01   
                   9.00000000E+01    3.20000000E+02    5.82586404E-18    1.85152279E-17    7.98349429E-02    2.53724109E-01    4.73443485E-33    8.89064958E-01    8.89064958E-01   
                   9.00000000E+01    3.22000000E+02    3.92192693E-18    2.10926016E-17    5.00412877E-02    2.69128151E-01    5.78404094E-33    9.41649576E-01    9.41649576E-01   