##File Type: Far field
##File Format: 5
##Source: RWG_wire_XY_rad_theta450.004
##Date: 2020-09-16 10:50:29
** File exported by POSTFEKO version 2018-319328 (x64)

#Configuration Name: StandardConfiguration1
#Request Name: FarField1
#Frequency: 3.00000000E+08
#Coordinate System: Spherical
#No. of Theta Samples: 1
#No. of Phi Samples: 181
#Result Type: RCS
#Incident Wave Direction: (4.50000000E+01, 0.00000000E+00)
#No. of Header Lines: 1
#                 "Theta"           "Phi"             "Re(Etheta)"      "Im(Etheta)"      "Re(Ephi)"        "Im(Ephi)"        "RCS(Theta)"      "RCS(Phi)"        "RCS(Total)"      
                   9.00000000E+01    0.00000000E+00   -2.43312023E-05   -8.02333195E-05    1.11136697E-05    1.83613897E-05    8.83339571E-08    5.78875247E-09    9.41227096E-08   
                   9.00000000E+01    2.00000000E+00   -2.46096193E-05   -8.00343493E-05    1.42016251E-02   -1.20773661E-02    8.81044634E-08    4.36742864E-03    4.36751675E-03   
                   9.00000000E+01    4.00000000E+00   -2.54526571E-05   -7.94195170E-05    2.81305167E-02   -2.44811825E-02    8.74028453E-08    1.74754769E-02    1.74755643E-02   
                   9.00000000E+01    6.00000000E+00   -2.68303580E-05   -7.83521641E-05    4.15211081E-02   -3.74872757E-02    8.61918529E-08    3.93239217E-02    3.93240079E-02   
                   9.00000000E+01    8.00000000E+00   -2.86897946E-05   -7.67738933E-05    5.40683260E-02   -5.13606095E-02    8.44125212E-08    6.98853078E-02    6.98853922E-02   
                   9.00000000E+01    1.00000000E+01   -3.09510418E-05   -7.46089956E-05    6.54276770E-02   -6.63197195E-02    8.19888983E-08    1.09064613E-01    1.09064695E-01   
                   9.00000000E+01    1.20000000E+01   -3.35022521E-05   -7.17711876E-05    7.52083032E-02   -8.25168354E-02    7.88351797E-08    1.56643793E-01    1.56643872E-01   
                   9.00000000E+01    1.40000000E+01   -3.61946239E-05   -6.81730656E-05    8.29718614E-02   -1.00015184E-01    7.48656316E-08    2.12212910E-01    2.12212985E-01   
                   9.00000000E+01    1.60000000E+01   -3.88383542E-05   -6.37386061E-05    8.82391549E-02   -1.18764019E-01    7.00075983E-08    2.75090931E-01    2.75091001E-01   
                   9.00000000E+01    1.80000000E+01   -4.12009792E-05   -5.84188072E-05    9.05064871E-02   -1.38572811E-01    6.42176438E-08    3.44241247E-01    3.44241311E-01   
                   9.00000000E+01    2.00000000E+01   -4.30097772E-05   -5.22101415E-05    8.92734899E-02   -1.59087095E-01    5.75004422E-08    4.18189458E-01    4.18189516E-01   
                   9.00000000E+01    2.20000000E+01   -4.39600634E-05   -4.51748590E-05    8.40835641E-02   -1.79769657E-01    4.99293956E-08    4.94953842E-01    4.94953892E-01   
                   9.00000000E+01    2.40000000E+01   -4.37311307E-05   -3.74613525E-05    7.45769260E-02   -1.99891820E-01    4.16671283E-08    5.72001809E-01    5.72001850E-01   
                   9.00000000E+01    2.60000000E+01   -4.20111707E-05   -2.93218381E-05    6.05545063E-02   -2.18540475E-01    3.29830617E-08    6.46248069E-01    6.46248102E-01   
                   9.00000000E+01    2.80000000E+01   -3.85316253E-05   -2.11236518E-05    4.20485859E-02   -2.34646743E-01    2.42643399E-08    7.14111376E-01    7.14111401E-01   
                   9.00000000E+01    3.00000000E+01   -3.31099867E-05   -1.33497124E-05    1.93932210E-02   -2.47041535E-01    1.60156639E-08    7.71645740E-01    7.71645756E-01   
                   9.00000000E+01    3.20000000E+01   -2.56980988E-05   -6.58345220E-06   -6.71547628E-03   -2.54541308E-01    8.84338381E-09    8.14757918E-01    8.14757927E-01   
                   9.00000000E+01    3.40000000E+01   -1.64306458E-05   -1.47407224E-06   -3.51817378E-02   -2.56063927E-01    3.41979965E-09    8.39515105E-01    8.39515108E-01   
                   9.00000000E+01    3.60000000E+01   -5.66606770E-06    1.32033937E-06   -6.45092563E-02   -2.50769461E-01    4.25341728E-10    8.42534522E-01    8.42534522E-01   
                   9.00000000E+01    3.80000000E+01    5.98987369E-06    1.21129575E-06   -9.28505807E-02   -2.38214492E-01    4.69301469E-10    8.21430655E-01    8.21430656E-01   
                   9.00000000E+01    4.00000000E+01    1.76885633E-05   -2.22479556E-06   -1.18117089E-01   -2.18501641E-01    3.99403223E-09    7.75277385E-01    7.75277389E-01   
                   9.00000000E+01    4.20000000E+01    2.83807764E-05   -9.14451338E-06   -1.38153209E-01   -1.92399901E-01    1.11726419E-08    7.05024048E-01    7.05024059E-01   
                   9.00000000E+01    4.40000000E+01    3.69029981E-05   -1.93437449E-05   -1.50968507E-01   -1.61407527E-01    2.18153668E-08    6.13790294E-01    6.13790316E-01   
                   9.00000000E+01    4.60000000E+01    4.21078707E-05   -3.21919083E-05   -1.55008616E-01   -1.27729616E-01    3.53038577E-08    5.06959133E-01    5.06959169E-01   
                   9.00000000E+01    4.80000000E+01    4.30300448E-05   -4.66151506E-05   -1.49432380E-01   -9.41486989E-02    5.05740750E-08    3.91995539E-01    3.91995589E-01   
                   9.00000000E+01    5.00000000E+01    3.90684689E-05   -6.11471562E-05   -1.34350895E-01   -6.37794980E-02    6.61659622E-08    2.77942827E-01    2.77942893E-01   
                   9.00000000E+01    5.20000000E+01    3.01563640E-05   -7.40586843E-05   -1.10977617E-01   -3.97182241E-02    8.03505677E-08    1.74591736E-01    1.74591816E-01   
                   9.00000000E+01    5.40000000E+01    1.68833794E-05   -8.35642384E-05   -8.16408093E-02   -2.46200269E-02    9.13327642E-08    9.13746984E-02    9.13747897E-02   
                   9.00000000E+01    5.60000000E+01    5.33511518E-07   -8.80876199E-05   -4.96227993E-02   -2.02616427E-02    9.75114345E-08    3.61026345E-02    3.61027321E-02   
                   9.00000000E+01    5.80000000E+01   -1.69904392E-05   -8.65503036E-05   -1.88153631E-02   -2.71643041E-02    9.77617148E-08    1.37214376E-02    1.37215353E-02   
                   9.00000000E+01    6.00000000E+01   -3.33688945E-05   -7.86317008E-05    6.78526723E-03   -4.43586587E-02    9.16896120E-08    2.53052832E-02    2.53053749E-02   
                   9.00000000E+01    6.20000000E+01   -4.61830809E-05   -6.49431417E-05    2.36821421E-02   -6.93638193E-02    7.98025936E-08    6.75088461E-02    6.75089259E-02   
                   9.00000000E+01    6.40000000E+01   -5.33093360E-05   -4.70619484E-05    2.94845369E-02   -9.84244975E-02    6.35445207E-08    1.32659651E-01    1.32659715E-01   
                   9.00000000E+01    6.60000000E+01   -5.33254649E-05   -2.73904199E-05    2.34022011E-02   -1.27005443E-01    4.51615293E-08    2.09582501E-01    2.09582546E-01   
                   9.00000000E+01    6.80000000E+01   -4.58479098E-05   -8.83585378E-06    6.51258034E-03   -1.50488010E-01    2.73959841E-08    2.85119073E-01    2.85119100E-01   
                   9.00000000E+01    7.00000000E+01   -3.17177460E-05    5.65303480E-06   -1.82851975E-02   -1.64960812E-01    1.30435436E-08    3.46158498E-01    3.46158511E-01   
                   9.00000000E+01    7.20000000E+01   -1.29724336E-05    1.36191023E-05   -4.66623775E-02   -1.67958515E-01    4.44552930E-09    3.81859836E-01    3.81859841E-01   
                   9.00000000E+01    7.40000000E+01    7.42193575E-06    1.35967125E-05   -7.35611239E-02   -1.58992324E-01    3.01537252E-09    3.85659376E-01    3.85659379E-01   
                   9.00000000E+01    7.60000000E+01    2.60525653E-05    5.46786427E-06   -9.40932277E-02   -1.39740188E-01    8.90495369E-09    3.56644352E-01    3.56644361E-01   
                   9.00000000E+01    7.80000000E+01    3.96782709E-05   -9.41884767E-06   -1.04469319E-01   -1.13823874E-01    2.08988780E-08    2.99955660E-01    2.99955680E-01   
                   9.00000000E+01    8.00000000E+01    4.58654263E-05   -2.84171122E-05   -1.02765829E-01   -8.61841237E-02    3.65828361E-08    2.26050393E-01    2.26050429E-01   
                   9.00000000E+01    8.20000000E+01    4.35055995E-05   -4.80297726E-05   -8.93547066E-02   -6.21563081E-02    5.27736829E-08    1.48882215E-01    1.48882268E-01   
                   9.00000000E+01    8.40000000E+01    3.30930629E-05   -6.45589416E-05   -6.68822271E-02   -4.64250399E-02    6.61369061E-08    8.32963966E-02    8.32964627E-02   
                   9.00000000E+01    8.60000000E+01    1.66856041E-05   -7.48316884E-05   -3.97770373E-02   -4.20764291E-02    7.38675263E-08    4.21304990E-02    4.21305729E-02   
                   9.00000000E+01    8.80000000E+01   -2.46033449E-06   -7.68475048E-05   -1.33732577E-02   -4.99575964E-02    7.42872590E-08    3.36100834E-02    3.36101577E-02   
                   9.00000000E+01    9.00000000E+01   -2.05148677E-05   -7.02032982E-05    7.17393058E-03   -6.84933642E-02    6.72220764E-08    5.95998606E-02    5.95999278E-02   
                   9.00000000E+01    9.20000000E+01   -3.38325905E-05   -5.61966454E-05    1.79490170E-02   -9.40116582E-02    5.40694125E-08    1.15112467E-01    1.15112521E-01   
                   9.00000000E+01    9.40000000E+01   -3.96817251E-05   -3.75786636E-05    1.70813760E-02   -1.21514964E-01    3.75331762E-08    1.89220135E-01    1.89220172E-01   
                   9.00000000E+01    9.60000000E+01   -3.67871344E-05   -1.80069632E-05    5.11746560E-03   -1.45733189E-01    2.10806394E-08    2.67215714E-01    2.67215735E-01   
                   9.00000000E+01    9.80000000E+01   -2.55715455E-05   -1.31691534E-06   -1.51206489E-02   -1.62229027E-01    8.23899267E-09    3.33598073E-01    3.33598081E-01   
                   9.00000000E+01    1.00000000E+02   -8.04818947E-06    9.23112930E-06   -3.91554503E-02   -1.68316442E-01    1.88479351E-09    3.75276738E-01    3.75276740E-01   
                   9.00000000E+01    1.02000000E+02    1.26033931E-05    1.15694078E-05   -6.18118172E-02   -1.63598301E-01    3.67813539E-09    3.84343763E-01    3.84343766E-01   
                   9.00000000E+01    1.04000000E+02    3.26780598E-05    5.18134417E-06   -7.83007660E-02   -1.50018210E-01    1.37564301E-08    3.59856537E-01    3.59856551E-01   
                   9.00000000E+01    1.06000000E+02    4.86596858E-05   -8.86018218E-06   -8.51974772E-02   -1.31431399E-01    3.07407084E-08    3.08288542E-01    3.08288573E-01   
                   9.00000000E+01    1.08000000E+02    5.78598490E-05   -2.81635859E-05   -8.11154456E-02   -1.12802843E-01    5.20367086E-08    2.42583693E-01    2.42583745E-01   
                   9.00000000E+01    1.10000000E+02    5.88577967E-05   -4.95221802E-05   -6.69542533E-02   -9.92139132E-02    7.43512763E-08    1.80029251E-01    1.80029325E-01   
                   9.00000000E+01    1.12000000E+02    5.16709866E-05   -6.95321189E-05   -4.56956717E-02   -9.48868081E-02    9.43056655E-08    1.39381166E-01    1.39381260E-01   
                   9.00000000E+01    1.14000000E+02    3.76480022E-05   -8.51939940E-05   -2.18174656E-02   -1.02416428E-01    1.09018150E-07    1.37791843E-01    1.37791952E-01   
                   9.00000000E+01    1.16000000E+02    1.91330089E-05   -9.43849028E-05   -4.65280523E-04   -1.22341115E-01    1.16547834E-07    1.88087967E-01    1.88088083E-01   
                   9.00000000E+01    1.18000000E+02   -1.00926037E-06   -9.61272912E-05    1.34428492E-02   -1.53104104E-01    1.16131796E-07    2.96837490E-01    2.96837606E-01   
                   9.00000000E+01    1.20000000E+02   -1.99032488E-05   -9.06305437E-05    1.60105167E-02   -1.91376503E-01    1.08196888E-07    4.63464116E-01    4.63464224E-01   
                   9.00000000E+01    1.22000000E+02   -3.51105315E-05   -7.91286203E-05    4.92561600E-03   -2.32647800E-01    9.41734869E-08    6.80459678E-01    6.80459772E-01   
                   9.00000000E+01    1.24000000E+02   -4.49460057E-05   -6.35721441E-05   -2.02789444E-02   -2.71952621E-01    7.61718211E-08    9.34554240E-01    9.34554316E-01   
                   9.00000000E+01    1.26000000E+02   -4.86283554E-05   -4.62508131E-05   -5.82730444E-02   -3.04596070E-01    5.65971069E-08    1.20856458E+00    1.20856464E+00   
                   9.00000000E+01    1.28000000E+02   -4.62669952E-05   -2.94214286E-05   -1.06237168E-01   -3.26760738E-01    3.77777183E-08    1.48357209E+00    1.48357213E+00   
                   9.00000000E+01    1.30000000E+02   -3.87164953E-05   -1.50018618E-05   -1.60345035E-01   -3.35917207E-01    2.16647102E-08    1.74108196E+00    1.74108198E+00   
                   9.00000000E+01    1.32000000E+02   -2.73466009E-05   -4.36794004E-06   -2.16321185E-01   -3.31005818E-01    9.63734420E-09    1.96487403E+00    1.96487404E+00   
                   9.00000000E+01    1.34000000E+02   -1.37805052E-05    1.73499000E-06   -2.69979455E-01   -3.12400238E-01    2.42421015E-09    2.14235024E+00    2.14235024E+00   
                   9.00000000E+01    1.36000000E+02    3.51998394E-07    3.17579809E-06   -3.17669057E-01   -2.81695718E-01    1.28297572E-10    2.26529071E+00    2.26529071E+00   
                   9.00000000E+01    1.38000000E+02    1.36127831E-05    3.41475830E-07   -3.56583747E-01   -2.41383244E-01    2.33011260E-09    2.33002928E+00    2.33002929E+00   
                   9.00000000E+01    1.40000000E+02    2.48870447E-05   -6.00696996E-06   -3.84919227E-01   -1.94474973E-01    8.23661107E-09    2.33713541E+00    2.33713542E+00   
                   9.00000000E+01    1.42000000E+02    3.34451151E-05   -1.48950511E-05   -4.01889102E-01   -1.44139123E-01    1.68444440E-08    2.29073548E+00    2.29073550E+00   
                   9.00000000E+01    1.44000000E+02    3.89426823E-05   -2.52856225E-05   -4.07627287E-01   -9.33879215E-02    2.70917783E-08    2.19762334E+00    2.19762337E+00   
                   9.00000000E+01    1.46000000E+02    4.13747069E-05   -3.62021140E-05   -4.03013641E-01   -4.48446551E-02    3.79813454E-08    2.06630136E+00    2.06630140E+00   
                   9.00000000E+01    1.48000000E+02    4.10009587E-05   -4.68151005E-05   -3.89460798E-01   -5.98949265E-04    4.86661887E-08    1.90606800E+00    1.90606804E+00   
                   9.00000000E+01    1.50000000E+02    3.82601862E-05   -5.64908562E-05   -3.68695517E-01    3.78542951E-02    5.84971927E-08    1.72623394E+00    1.72623400E+00   
                   9.00000000E+01    1.52000000E+02    3.36866799E-05   -6.48061876E-05   -3.42559823E-01    6.96061989E-02    6.70369925E-08    1.53551317E+00    1.53551324E+00   
                   9.00000000E+01    1.54000000E+02    2.78386719E-05   -7.15371456E-05   -3.12847961E-01    9.42741021E-02    7.40480282E-08    1.34160398E+00    1.34160406E+00   
                   9.00000000E+01    1.56000000E+02    2.12436499E-05   -7.66303911E-05   -2.81186480E-01    1.11910230E-01    7.94635639E-08    1.15095057E+00    1.15095065E+00   
                   9.00000000E+01    1.58000000E+02    1.43619551E-05   -8.01655381E-05   -2.48957699E-01    1.22896492E-01    8.33499624E-08    9.68659627E-01    9.68659711E-01   
                   9.00000000E+01    1.60000000E+02    7.56732981E-06   -8.23153327E-05   -2.17261827E-01    1.27839520E-01    8.58669966E-08    7.98538115E-01    7.98538201E-01   
                   9.00000000E+01    1.62000000E+02    1.14144959E-06   -8.33086006E-05   -1.86910210E-01    1.27475868E-01    8.72310429E-08    6.43216257E-01    6.43216345E-01   
                   9.00000000E+01    1.64000000E+02   -4.72121845E-06   -8.33989613E-05   -1.58441162E-01    1.22593272E-01    8.76840709E-08    5.04322536E-01    5.04322624E-01   
                   9.00000000E+01    1.66000000E+02   -9.90187214E-06   -8.28406283E-05   -1.32150120E-01    1.13970456E-01    8.74696900E-08    3.82682667E-01    3.82682754E-01   
                   9.00000000E+01    1.68000000E+02   -1.43423193E-05   -8.18713427E-05   -1.08127079E-01    1.02335418E-01    8.68162652E-08    2.78521075E-01    2.78521162E-01   
                   9.00000000E+01    1.70000000E+02   -1.80288941E-05   -8.07016497E-05   -8.62958251E-02    8.83404847E-02    8.59262949E-08    1.91649852E-01    1.91649938E-01   
                   9.00000000E+01    1.72000000E+02   -2.09770958E-05   -7.95092652E-05   -6.64511540E-02    7.25515066E-02    8.49708048E-08    1.21635895E-01    1.21635980E-01   
                   9.00000000E+01    1.74000000E+02   -2.32180385E-05   -7.84371258E-05   -4.82918107E-02    5.54482802E-02    8.40873665E-08    6.79414745E-02    6.79415586E-02   
                   9.00000000E+01    1.76000000E+02   -2.47872806E-05   -7.75937668E-05   -3.14481793E-02    3.74334026E-02    8.33804066E-08    3.00367374E-02    3.00368208E-02   
                   9.00000000E+01    1.78000000E+02   -2.57162365E-05   -7.70548549E-05   -1.55047483E-02    1.88471129E-02    8.29226583E-08    7.48466711E-03    7.48475004E-03   
                   9.00000000E+01    1.80000000E+02   -2.60261583E-05   -7.68649438E-05   -1.81102524E-05   -1.38875838E-05    8.27568454E-08    6.54514670E-09    8.93019921E-08   
                   9.00000000E+01    1.82000000E+02   -2.57245883E-05   -7.70387929E-05    1.54682576E-02   -1.88752278E-02    8.28969548E-08    7.48379164E-03    7.48387453E-03   
                   9.00000000E+01    1.84000000E+02   -2.48041829E-05   -7.75618532E-05    3.14108914E-02   -3.74625501E-02    8.33287164E-08    3.00347161E-02    3.00347994E-02   
                   9.00000000E+01    1.86000000E+02   -2.32438702E-05   -7.83897906E-05    4.82532402E-02   -5.54791927E-02    8.40091630E-08    6.79377707E-02    6.79378547E-02   
                   9.00000000E+01    1.88000000E+02   -2.10123796E-05   -7.94471756E-05    6.64108874E-02   -7.25849790E-02    8.48653982E-08    1.21629715E-01    1.21629799E-01   
                   9.00000000E+01    1.90000000E+02   -1.80742398E-05   -8.06257300E-05    8.62535562E-02   -8.83773920E-02    8.57929556E-08    1.91640160E-01    1.91640246E-01   
                   9.00000000E+01    1.92000000E+02   -1.43983471E-05   -8.17827915E-05    1.08082648E-01   -1.02376725E-01    8.66543917E-08    2.78506621E-01    2.78506707E-01   
                   9.00000000E+01    1.94000000E+02   -9.96911616E-06   -8.27409240E-05    1.32103562E-01   -1.14017215E-01    8.72790206E-08    3.82662024E-01    3.82662111E-01   
                   9.00000000E+01    1.96000000E+02   -4.80001277E-06   -8.32898454E-05    1.58392752E-01   -1.22646606E-01    8.74649362E-08    5.04294159E-01    5.04294247E-01   
                   9.00000000E+01    1.98000000E+02    1.05109522E-06   -8.31920284E-05    1.86860517E-01   -1.27536938E-01    8.69846486E-08    6.43178557E-01    6.43178644E-01   
                   9.00000000E+01    2.00000000E+02    7.46585441E-06   -8.21933807E-05    2.17211757E-01   -1.27909470E-01    8.55957179E-08    7.98489557E-01    7.98489642E-01   
                   9.00000000E+01    2.02000000E+02    1.42503543E-05   -8.00402586E-05    2.48908538E-01   -1.22976368E-01    8.30576226E-08    9.68598853E-01    9.68598936E-01   
                   9.00000000E+01    2.04000000E+02    2.11235453E-05   -7.65036132E-05    2.81139909E-01   -1.12000878E-01    7.91556565E-08    1.15087654E+00    1.15087662E+00   
                   9.00000000E+01    2.06000000E+02    2.77123157E-05   -7.14102263E-05    3.12806046E-01   -9.43760479E-02    7.37318332E-08    1.34151612E+00    1.34151620E+00   
                   9.00000000E+01    2.08000000E+02    3.35568659E-05   -6.46797301E-05    3.42524974E-01   -6.97195103E-02    6.67215310E-08    1.53541154E+00    1.53541160E+00   
                   9.00000000E+01    2.10000000E+02    3.81300424E-05   -5.63644277E-05    3.68670383E-01   -3.79784450E-02    5.81929629E-08    1.72611935E+00    1.72611941E+00   
                   9.00000000E+01    2.12000000E+02    4.08736052E-05   -4.66869947E-05    3.89448123E-01    4.65206549E-04    4.83846370E-08    1.90594215E+00    1.90594219E+00   
                   9.00000000E+01    2.14000000E+02    4.12527797E-05   -3.60692179E-05    4.03016058E-01    4.47033715E-02    3.77340503E-08    2.06616686E+00    2.06616690E+00   
                   9.00000000E+01    2.16000000E+02    3.88277497E-05   -2.51434549E-05    4.07647064E-01    9.32419834E-02    2.68893624E-08    2.19748370E+00    2.19748373E+00   
                   9.00000000E+01    2.18000000E+02    3.33370445E-05   -1.47380359E-05    4.01927856E-01    1.43992196E-01    1.66952808E-08    2.29059495E+00    2.29059497E+00   
                   9.00000000E+01    2.20000000E+02    2.47834133E-05   -5.82899048E-06    3.84977637E-01    1.94331346E-01    8.14545490E-09    2.33699877E+00    2.33699878E+00   
                   9.00000000E+01    2.22000000E+02    1.35084531E-05    5.46231269E-07    3.56661301E-01    2.41247557E-01    2.29683943E-09    2.32990146E+00    2.32990147E+00   
                   9.00000000E+01    2.24000000E+02    2.38997432E-07    3.41174173E-06    3.17763881E-01    2.81572591E-01    1.46990112E-10    2.26517637E+00    2.26517637E+00   
                   9.00000000E+01    2.26000000E+02   -1.39126667E-05    2.00389964E-06    2.70088273E-01    3.12293810E-01    2.48283724E-09    2.14225328E+00    2.14225328E+00   
                   9.00000000E+01    2.28000000E+02   -2.75100796E-05   -4.06811989E-06    2.16439436E-01    3.30919257E-01    9.71825398E-09    1.96479709E+00    1.96479710E+00   
                   9.00000000E+01    2.30000000E+02   -3.89237090E-05   -1.46779494E-05    1.60467192E-01    3.35852246E-01    2.17460707E-08    1.74102605E+00    1.74102607E+00   
                   9.00000000E+01    2.32000000E+02   -4.65287439E-05   -2.90854063E-05    1.06357234E-01    3.26717323E-01    3.78358952E-08    1.48353633E+00    1.48353637E+00   
                   9.00000000E+01    2.34000000E+02   -4.89516727E-05   -4.59194634E-05    5.83851927E-02    3.04572188E-01    5.66097828E-08    1.20854617E+00    1.20854623E+00   
                   9.00000000E+01    2.36000000E+02   -4.53320649E-05   -6.32657658E-05    2.03782324E-02    2.71944386E-01    7.61214589E-08    9.34548684E-01    9.34548760E-01   
                   9.00000000E+01    2.38000000E+02   -3.55530152E-05   -7.88688126E-05   -4.84256923E-03    2.32649817E-01    9.40505691E-08    6.80461278E-01    6.80461372E-01   
                   9.00000000E+01    2.40000000E+02   -2.03876089E-05   -9.04372346E-05   -1.59450068E-02    1.91382501E-01    1.08002275E-07    4.63466661E-01    4.63466769E-01   
                   9.00000000E+01    2.42000000E+02   -1.51322608E-06   -9.60153896E-05   -1.33938315E-02    1.53107772E-01    1.15877581E-07    2.96835073E-01    2.96835189E-01   
                   9.00000000E+01    2.44000000E+02    1.86374908E-05   -9.43611254E-05    5.01095418E-04    1.22337014E-01    1.16256245E-07    1.88075793E-01    1.88075910E-01   
                   9.00000000E+01    2.46000000E+02    3.71914631E-05   -8.52545094E-05    2.18451381E-02    1.02400836E-01    1.08718411E-07    1.37766897E-01    1.37767006E-01   
                   9.00000000E+01    2.48000000E+02    5.12821378E-05   -6.96616176E-05    4.57212264E-02    9.48583234E-02    9.40291074E-08    1.39342603E-01    1.39342697E-01   
                   9.00000000E+01    2.50000000E+02    5.85588889E-05   -4.96948020E-05    6.69836573E-02    9.91736794E-02    7.41254617E-08    1.79978438E-01    1.79978512E-01   
                   9.00000000E+01    2.52000000E+02    5.76625296E-05   -2.83458223E-05    8.11535511E-02    1.12754326E-01    5.18796699E-08    2.42523877E-01    2.42523929E-01   
                   9.00000000E+01    2.54000000E+02    4.85622293E-05   -9.01547758E-06    8.52471328E-02    1.31379715E-01    3.06565276E-08    3.08224209E-01    3.08224240E-01   
                   9.00000000E+01    2.56000000E+02    3.26646879E-05    5.08697172E-06    7.83622883E-02    1.49969117E-01    1.37332727E-08    3.59792586E-01    3.59792599E-01   
                   9.00000000E+01    2.58000000E+02    1.26460511E-05    1.15617090E-05    6.18829523E-02    1.63557029E-01    3.68943265E-09    3.84284657E-01    3.84284661E-01   
                   9.00000000E+01    2.60000000E+02   -7.98570587E-06    9.32303619E-06    3.92318588E-02    1.68286612E-01    1.89363270E-09    3.75225828E-01    3.75225830E-01   
                   9.00000000E+01    2.62000000E+02   -2.55277329E-05   -1.12781353E-06    1.51968338E-02    1.62211884E-01    8.20504974E-09    3.33557207E-01    3.33557216E-01   
                   9.00000000E+01    2.64000000E+02   -3.67962324E-05   -1.77382410E-05   -5.04696970E-03    1.45727323E-01    2.09683455E-08    2.67185224E-01    2.67185245E-01   
                   9.00000000E+01    2.66000000E+02   -3.97677348E-05   -3.72600638E-05   -1.70208039E-02    1.21516596E-01    3.73194200E-08    1.89199163E-01    1.89199200E-01   
                   9.00000000E+01    2.68000000E+02   -3.40050737E-05   -5.58647455E-05   -1.79004239E-02    9.40154487E-02    5.37490666E-08    1.15099532E-01    1.15099586E-01   
                   9.00000000E+01    2.70000000E+02   -2.07674130E-05   -6.98948324E-05   -7.13670648E-03    6.84935635E-02    6.68100272E-08    5.95935097E-02    5.95935765E-02   
                   9.00000000E+01    2.72000000E+02   -2.77203965E-06   -7.65926502E-05    1.34022982E-02    4.99492998E-02    7.38163472E-08    3.36094386E-02    3.36095124E-02   
                   9.00000000E+01    2.74000000E+02    1.63459164E-05   -7.46486488E-05    3.98030075E-02    4.20566551E-02    7.33827004E-08    4.21355640E-02    4.21356374E-02   
                   9.00000000E+01    2.76000000E+02    3.27607509E-05   -6.44508952E-05    6.69111040E-02    4.63933998E-02    6.56867401E-08    8.33080425E-02    8.33081082E-02   
                   9.00000000E+01    2.78000000E+02    4.32134694E-05   -4.79847427E-05    8.93920849E-02    6.21151242E-02    5.24010048E-08    1.48901860E-01    1.48901912E-01   
                   9.00000000E+01    2.80000000E+02    4.56377033E-05   -2.84107017E-05    1.02815761E-01    8.61379799E-02    3.63164082E-08    2.26079467E-01    2.26079503E-01   
                   9.00000000E+01    2.82000000E+02    3.95264226E-05   -9.41918846E-06    1.04533490E-01    1.13778707E-01    2.07478218E-08    2.99995012E-01    2.99995033E-01   
                   9.00000000E+01    2.84000000E+02    2.59736922E-05    5.49401635E-06    9.41706133E-02    1.39702121E-01    8.85699043E-09    3.56693753E-01    3.56693762E-01   
                   9.00000000E+01    2.86000000E+02    7.39988063E-06    1.36779730E-05    7.36482044E-02    1.58966495E-01    3.03911616E-09    3.85717264E-01    3.85717267E-01   
                   9.00000000E+01    2.88000000E+02   -1.29636602E-05    1.37746735E-05    4.67538151E-02    1.67948136E-01    4.49622372E-09    3.81923364E-01    3.81923368E-01   
                   9.00000000E+01    2.90000000E+02   -3.17090521E-05    5.88993284E-06    1.83748322E-02    1.64966625E-01    1.30709769E-08    3.46223892E-01    3.46223905E-01   
                   9.00000000E+01    2.92000000E+02   -4.58697591E-05   -8.52323479E-06   -6.43063702E-03    1.50508227E-01    2.73529718E-08    2.85182213E-01    2.85182241E-01   
                   9.00000000E+01    2.94000000E+02   -5.34030794E-05   -2.70185680E-05   -2.33325855E-02    1.27036138E-01    4.50113813E-08    2.09639607E-01    2.09639652E-01   
                   9.00000000E+01    2.96000000E+02   -5.34592500E-05   -4.66548723E-05   -2.94299374E-02    9.84603436E-02    6.32662539E-08    1.32707917E-01    1.32707980E-01   
                   9.00000000E+01    2.98000000E+02   -4.64114811E-05   -6.45281726E-05   -2.36429859E-02    6.93990002E-02    7.93932065E-08    6.75469062E-02    6.75469856E-02   
                   9.00000000E+01    3.00000000E+02   -3.36717881E-05   -7.82352867E-05   -6.75980286E-03    4.43877819E-02    9.11633564E-08    2.53334276E-02    2.53335188E-02   
                   9.00000000E+01    3.02000000E+02   -1.73553596E-05   -8.61945005E-05    1.88306462E-02    2.71831558E-02    9.71468467E-08    1.37415424E-02    1.37416395E-02   
                   9.00000000E+01    3.04000000E+02    1.24782139E-07   -8.77877466E-05    4.96325282E-02    2.02676816E-02    9.68452990E-08    3.61178449E-02    3.61179417E-02   
                   9.00000000E+01    3.06000000E+02    1.64516737E-05   -8.33278782E-05    8.16499947E-02    2.46125718E-02    9.06562211E-08    9.13889343E-02    9.13890250E-02   
                   9.00000000E+01    3.08000000E+02    2.97221468E-05   -7.38859531E-05    1.10990959E-01    3.96983512E-02    7.97027092E-08    1.74609119E-01    1.74609198E-01   
                   9.00000000E+01    3.10000000E+02    3.86494371E-05   -6.10319597E-05    1.34372228E-01    6.37497085E-02    6.55798555E-08    2.77967126E-01    2.77967191E-01   
                   9.00000000E+01    3.12000000E+02    4.26395576E-05   -4.65470467E-05    1.49464314E-01    9.41124454E-02    5.00739637E-08    3.92029715E-01    3.92029765E-01   
                   9.00000000E+01    3.14000000E+02    4.17542695E-05   -3.21581750E-05    1.55052391E-01    1.27690780E-01    3.49039394E-08    5.07005043E-01    5.07005078E-01   
                   9.00000000E+01    3.16000000E+02    3.65897227E-05   -1.93313106E-05    1.51024048E-01    1.61369928E-01    2.15200023E-08    6.13848562E-01    6.13848584E-01   
                   9.00000000E+01    3.18000000E+02    2.81070800E-05   -9.14150824E-06    1.38219323E-01    1.92366903E-01    1.09776687E-08    7.05094109E-01    7.05094120E-01   
                   9.00000000E+01    3.20000000E+02    1.74505887E-05   -2.22159753E-06    1.18191762E-01    2.18475878E-01    3.88877071E-09    7.75357657E-01    7.75357661E-01   
                   9.00000000E+01    3.22000000E+02    5.78185503E-06    1.22153877E-06    9.29313027E-02    2.38197737E-01    4.38842852E-10    8.21518802E-01    8.21518803E-01   