##File Type: Far field
##File Format: 5
##Source: RWG_wire_XY_rad_theta450.18
##Date: 2020-09-16 10:50:29
** File exported by POSTFEKO version 2018-319328 (x64)

#Configuration Name: StandardConfiguration1
#Request Name: FarField1
#Frequency: 3.00000000E+08
#Coordinate System: Spherical
#No. of Theta Samples: 1
#No. of Phi Samples: 181
#Result Type: RCS
#Incident Wave Direction: (4.50000000E+01, 0.00000000E+00)
#No. of Header Lines: 1
#                 "Theta"           "Phi"             "Re(Etheta)"      "Im(Etheta)"      "Re(Ephi)"        "Im(Ephi)"        "RCS(Theta)"      "RCS(Phi)"        "RCS(Total)"      
                   9.00000000E+01    0.00000000E+00   -9.77289209E-02   -1.90309230E-01   -1.70866124E-04    7.46226672E-06    5.75144499E-01    3.67577872E-07    5.75144866E-01   
                   9.00000000E+01    2.00000000E+00   -9.84411370E-02   -1.89838065E-01    9.40525593E-03   -5.07276409E-03    5.74649427E-01    1.43497616E-03    5.76084403E-01   
                   9.00000000E+01    4.00000000E+00   -1.00606105E-01   -1.88370742E-01    1.88577172E-02   -1.03178090E-02    5.73090901E-01    5.80655141E-03    5.78897452E-01   
                   9.00000000E+01    6.00000000E+00   -1.04153509E-01   -1.85816963E-01    2.80535330E-02   -1.58890957E-02    5.70210338E-01    1.30622908E-02    5.83272628E-01   
                   9.00000000E+01    8.00000000E+00   -1.08959051E-01   -1.82032542E-01    3.68435634E-02   -2.19342443E-02    5.65586218E-01    2.31040168E-02    5.88690234E-01   
                   9.00000000E+01    1.00000000E+01   -1.14834981E-01   -1.76830113E-01    4.50558970E-02   -2.85785429E-02    5.58650088E-01    3.57735288E-02    5.94423617E-01   
                   9.00000000E+01    1.20000000E+01   -1.21518581E-01   -1.69995280E-01    5.24912615E-02   -3.59146946E-02    5.48712592E-01    5.08334551E-02    5.99546048E-01   
                   9.00000000E+01    1.40000000E+01   -1.28660511E-01   -1.61309095E-01    5.89214181E-02   -4.39906475E-02    5.35002563E-01    6.79452422E-02    6.02947805E-01   
                   9.00000000E+01    1.60000000E+01   -1.35815571E-01   -1.50577481E-01    6.40916554E-02   -5.27956877E-02    5.16722210E-01    8.66466954E-02    6.03368905E-01   
                   9.00000000E+01    1.80000000E+01   -1.42439147E-01   -1.37667660E-01    6.77285999E-02   -6.22454774E-02    4.93120659E-01    1.06332390E-01    5.99453049E-01   
                   9.00000000E+01    2.00000000E+01   -1.47893116E-01   -1.22550653E-01    6.95545152E-02   -7.21673529E-02    4.63586435E-01    1.26241224E-01    5.89827659E-01   
                   9.00000000E+01    2.20000000E+01   -1.51465211E-01   -1.05347466E-01    6.93089957E-02   -8.22879168E-02    4.27756728E-01    1.45456219E-01    5.73212947E-01   
                   9.00000000E+01    2.40000000E+01   -1.52405584E-01   -8.63747551E-02    6.67783762E-02   -9.22256997E-02    3.85637541E-01    1.62922131E-01    5.48559671E-01   
                   9.00000000E+01    2.60000000E+01   -1.49983155E-01   -6.61837360E-02    6.18322019E-02   -1.01492301E-01    3.37724147E-01    1.77486266E-01    5.15210413E-01   
                   9.00000000E+01    2.80000000E+01   -1.43562280E-01   -4.55841691E-02    5.44647136E-02   -1.09505745E-01    2.85106378E-01    1.87966682E-01    4.73073060E-01   
                   9.00000000E+01    3.00000000E+01   -1.32697035E-01   -2.56438656E-02    4.48375430E-02   -1.15619623E-01    2.29538718E-01    1.93249447E-01    4.22788166E-01   
                   9.00000000E+01    3.20000000E+01   -1.17236148E-01   -7.65396836E-03    3.33178569E-02   -1.19170596E-01    1.73452328E-01    1.92412629E-01    3.65864957E-01   
                   9.00000000E+01    3.40000000E+01   -9.74267017E-02    6.94816712E-03    2.05043397E-02   -1.19544953E-01    1.19886182E-01    1.84869202E-01    3.04755384E-01   
                   9.00000000E+01    3.60000000E+01   -7.39998334E-02    1.67027266E-02    7.23212690E-03   -1.16261848E-01    7.23189152E-02    1.70514602E-01    2.42833517E-01   
                   9.00000000E+01    3.80000000E+01   -4.82179825E-02    2.02955013E-02   -5.45233836E-03   -1.09066913E-01    3.43926636E-02    1.49857984E-01    1.84250648E-01   
                   9.00000000E+01    4.00000000E+01   -2.18620020E-02    1.67589746E-02   -1.63539503E-02   -9.80253639E-02    9.53549221E-03    1.24110800E-01    1.33646292E-01   
                   9.00000000E+01    4.20000000E+01    2.86079604E-03    5.68469867E-03   -2.42326882E-02   -8.35993686E-02    5.08937419E-04    9.52037990E-02    9.57127364E-02   
                   9.00000000E+01    4.40000000E+01    2.34988349E-02   -1.25849793E-02   -2.79458406E-02   -6.66913146E-02    8.92937327E-03    6.57058003E-02    7.46351735E-02   
                   9.00000000E+01    4.60000000E+01    3.76267270E-02   -3.68253149E-02   -2.66177912E-02   -4.86340431E-02    3.48324010E-02    3.86262204E-02    7.34586214E-02   
                   9.00000000E+01    4.80000000E+01    4.31842983E-02   -6.48991787E-02   -1.98171197E-02   -3.11123011E-02    7.63631577E-02    1.70989790E-02    9.34621367E-02   
                   9.00000000E+01    5.00000000E+01    3.88445849E-02   -9.38640458E-02   -7.71213825E-03   -1.60075023E-02    1.29676913E-01    3.96741942E-03    1.33644333E-01   
                   9.00000000E+01    5.20000000E+01    2.43529335E-02   -1.20235409E-01    8.82962228E-03   -5.17038344E-03    1.89119090E-01    1.31563736E-03    1.90434727E-01   
                   9.00000000E+01    5.40000000E+01    7.67646806E-04   -1.40400617E-01    2.82325042E-02   -1.42160255E-04    2.47719890E-01    1.00165850E-02    2.57736475E-01   
                   9.00000000E+01    5.60000000E+01   -2.94674512E-02   -1.51144937E-01    4.83213071E-02   -1.86178517E-03    2.97987887E-01    2.93853891E-02    3.27373276E-01   
                   9.00000000E+01    5.80000000E+01   -6.26727472E-02   -1.50218232E-01    6.65580753E-02   -1.04111109E-02    3.32925764E-01    5.70308221E-02    3.89956586E-01   
                   9.00000000E+01    6.00000000E+01   -9.43271068E-02   -1.36843710E-01    8.03940189E-02   -2.48567313E-02    3.47130958E-01    8.89831661E-02    4.36114124E-01   
                   9.00000000E+01    6.20000000E+01   -1.19683241E-01   -1.12058228E-01    8.76954834E-02   -4.32428916E-02    3.37798175E-01    1.20140101E-01    4.57938276E-01   
                   9.00000000E+01    6.40000000E+01   -1.34528702E-01   -7.87837760E-02    8.71762645E-02   -6.27716580E-02    3.05423815E-01    1.45015693E-01    4.50439508E-01   
                   9.00000000E+01    6.60000000E+01   -1.35969759E-01   -4.15652669E-02    7.87503811E-02   -8.01749077E-02    2.54034795E-01    1.58708716E-01    4.12743511E-01   
                   9.00000000E+01    6.80000000E+01   -1.23085736E-01   -5.96829364E-03    6.37166251E-02   -9.22417634E-02    1.90829373E-01    1.57938560E-01    3.48767933E-01   
                   9.00000000E+01    7.00000000E+01   -9.73007587E-02    2.22972289E-02    4.47036336E-02   -9.64226505E-02    1.25218908E-01    1.41946485E-01    2.67165393E-01   
                   9.00000000E+01    7.20000000E+01   -6.23546759E-02    3.83905073E-02    2.53425872E-02   -9.13975096E-02    6.73800832E-02    1.13043947E-01    1.80424030E-01   
                   9.00000000E+01    7.40000000E+01   -2.38236862E-02    3.93013956E-02    9.68922232E-03   -7.74814726E-02    2.65422824E-02    7.66204242E-02    1.03162707E-01   
                   9.00000000E+01    7.60000000E+01    1.17670824E-02    2.45546452E-02    1.47743615E-03   -5.67544112E-02    9.31664219E-03    4.05045040E-02    4.98211462E-02   
                   9.00000000E+01    7.80000000E+01    3.81010010E-02   -3.51911602E-03    3.33927722E-03   -3.28435706E-02    1.83980520E-02    1.36954703E-02    3.20935223E-02   
                   9.00000000E+01    8.00000000E+01    5.02828708E-02   -4.00468711E-02    1.61556809E-02   -1.03558905E-02    5.19257385E-02    4.62757219E-03    5.65533107E-02   
                   9.00000000E+01    8.20000000E+01    4.58574316E-02   -7.84045228E-02    3.86973716E-02    5.96405492E-03    1.03674734E-01    1.92649564E-02    1.22939691E-01   
                   9.00000000E+01    8.40000000E+01    2.54030688E-02   -1.11411299E-01    6.76715017E-02    1.22013739E-02    1.64089071E-01    5.94176414E-02    2.23506713E-01   
                   9.00000000E+01    8.60000000E+01   -7.45404243E-03   -1.32702510E-01    9.82120576E-02    6.16655085E-03    2.21991458E-01    1.21688141E-01    3.43679600E-01   
                   9.00000000E+01    8.80000000E+01   -4.66419321E-02   -1.38000511E-01    1.24755707E-01   -1.19842738E-02    2.66653493E-01    1.97387641E-01    4.64041134E-01   
                   9.00000000E+01    9.00000000E+01   -8.47627112E-02   -1.26010174E-01    1.42151330E-01   -3.95676674E-02    2.89821738E-01    2.73602572E-01    5.63424310E-01   
                   9.00000000E+01    9.20000000E+01   -1.14512752E-01   -9.87359875E-02    1.46784383E-01   -7.17101064E-02    2.87291931E-01    3.35371228E-01    6.22663160E-01   
                   9.00000000E+01    9.40000000E+01   -1.30111920E-01   -6.11388459E-02    1.37475443E-01   -1.02175183E-01    2.59710063E-01    3.68688082E-01    6.28398145E-01   
                   9.00000000E+01    9.60000000E+01   -1.28442263E-01   -2.01940595E-02    1.15944530E-01   -1.24541519E-01    2.12437196E-01    3.63843225E-01    5.76280421E-01   
                   9.00000000E+01    9.80000000E+01   -1.09657052E-01    1.64563008E-02    8.67148535E-02   -1.33506749E-01    1.54509546E-01    3.18476038E-01    4.72985584E-01   
                   9.00000000E+01    1.00000000E+02   -7.71364894E-02    4.19757716E-02    5.64442934E-02   -1.26054347E-01    9.69118929E-02    2.39711771E-01    3.36623664E-01   
                   9.00000000E+01    1.02000000E+02   -3.68087754E-02    5.16263668E-02    3.27942967E-02   -1.02239038E-01    5.05189172E-02    1.44868725E-01    1.95387642E-01   
                   9.00000000E+01    1.04000000E+02    4.00964398E-03    4.36234720E-02    2.30458111E-02   -6.54198656E-02    2.41159278E-02    6.04551530E-02    8.45710808E-02   
                   9.00000000E+01    1.06000000E+02    3.80046728E-02    1.93960904E-02    3.27271397E-02   -2.18812174E-02    2.28778754E-02    1.94760315E-02    4.23539069E-02   
                   9.00000000E+01    1.08000000E+02    5.91994439E-02   -1.67725638E-02    6.45169596E-02    2.00942105E-02    4.75749353E-02    5.73807546E-02    1.04955690E-01   
                   9.00000000E+01    1.10000000E+02    6.39750549E-02   -5.86196934E-02    1.17628652E-01    5.15284024E-02    9.46131607E-02    2.07240514E-01    3.01853675E-01   
                   9.00000000E+01    1.12000000E+02    5.16006104E-02   -9.90905425E-02    1.87783999E-01    6.41855156E-02    1.56847891E-01    4.94896481E-01    6.51744372E-01   
                   9.00000000E+01    1.14000000E+02    2.42087536E-02   -1.31590098E-01    2.67768395E-01    5.18851517E-02    2.24963387E-01    9.34837219E-01    1.15980061E+00   
                   9.00000000E+01    1.16000000E+02   -1.37315878E-02   -1.51059924E-01    3.48451852E-01    1.14679837E-02    2.89122746E-01    1.52744496E+00    1.81656771E+00   
                   9.00000000E+01    1.18000000E+02   -5.63008802E-02   -1.54699603E-01    4.20082188E-01   -5.67330836E-02    3.40570713E-01    2.25802208E+00    2.59859279E+00   
                   9.00000000E+01    1.20000000E+02   -9.71763809E-02   -1.42240613E-01    4.73622408E-01   -1.48964510E-01    3.72915103E-01    3.09771857E+00    3.47063367E+00   
                   9.00000000E+01    1.22000000E+02   -1.30638408E-01   -1.15776042E-01    5.01915978E-01   -2.58616435E-01    3.82903414E-01    4.00618546E+00    4.38908888E+00   
                   9.00000000E+01    1.24000000E+02   -1.52367407E-01   -7.92310559E-02    5.00513895E-01   -3.77151027E-01    3.70624832E-01    4.93553073E+00    5.30615556E+00   
                   9.00000000E+01    1.26000000E+02   -1.59925916E-01   -3.76118141E-02    4.68071638E-01   -4.95220127E-01    3.39178244E-01    5.83499355E+00    6.17417179E+00   
                   9.00000000E+01    1.28000000E+02   -1.52891826E-01    3.81146330E-03    4.06304692E-01   -6.03788175E-01    2.93932910E-01    6.65569856E+00    6.94963147E+00   
                   9.00000000E+01    1.30000000E+02   -1.32675550E-01    4.02458527E-02    3.19562301E-01   -6.95100276E-01    2.41557439E-01    7.35490141E+00    7.59645885E+00   
                   9.00000000E+01    1.32000000E+02   -1.02101747E-01    6.79377091E-02    2.14129045E-01   -7.63382344E-01    1.89001971E-01    7.89926897E+00    8.08827094E+00   
                   9.00000000E+01    1.34000000E+02   -6.48605714E-02    8.45005757E-02    9.73872710E-02   -8.05218197E-01    1.42593636E-01    8.26692043E+00    8.40951406E+00   
                   9.00000000E+01    1.36000000E+02   -2.49341893E-02    8.90031088E-02   -2.30286995E-02   -8.19604882E-01    1.07357862E-01    8.44815085E+00    8.55550871E+00   
                   9.00000000E+01    1.38000000E+02    1.39133916E-02    8.18505340E-02   -1.39978063E-01   -8.07733104E-01    8.66211535E-02    8.44493564E+00    8.53155680E+00   
                   9.00000000E+01    1.40000000E+02    4.85238019E-02    6.45181092E-02   -2.47384804E-01   -7.72568772E-01    8.18968690E-02    8.26944781E+00    8.35134468E+00   
                   9.00000000E+01    1.42000000E+02    7.65816441E-02    3.92045275E-02   -3.40599248E-01   -7.18323304E-01    9.30130481E-02    7.94189869E+00    8.03491174E+00   
                   9.00000000E+01    1.44000000E+02    9.67028849E-02    8.46931623E-03   -4.16549561E-01   -6.49896445E-01    1.18415138E-01    7.48803543E+00    7.60645057E+00   
                   9.00000000E+01    1.46000000E+02    1.08396821E-01   -2.50948096E-02   -4.73709908E-01   -5.72360315E-01    1.55566898E-01    6.93660400E+00    7.09217090E+00   
                   9.00000000E+01    1.48000000E+02    1.11936425E-01   -5.91213231E-02   -5.11928806E-01   -4.90532368E-01    2.01377272E-01    6.31702788E+00    6.51840516E+00   
                   9.00000000E+01    1.50000000E+02    1.08175571E-01   -9.16456701E-02   -5.32167792E-01   -4.08662586E-01    2.52595145E-01    5.65747641E+00    5.91007156E+00   
                   9.00000000E+01    1.52000000E+02    9.83486106E-02   -1.21197457E-01   -5.36198736E-01   -3.30240278E-01    3.06132781E-01    4.98341701E+00    5.28954979E+00   
                   9.00000000E+01    1.54000000E+02    8.38804152E-02   -1.46820005E-01   -5.26300441E-01   -2.57910545E-01    3.59298144E-01    4.31667401E+00    4.67597215E+00   
                   9.00000000E+01    1.56000000E+02    6.62257944E-02   -1.68034453E-01   -5.04984460E-01   -1.93480630E-01    4.09933019E-01    3.67496043E+00    4.08489345E+00   
                   9.00000000E+01    1.58000000E+02    4.67481353E-02   -1.84767534E-01   -4.74768611E-01   -1.37991810E-01    4.56466249E-01    3.07181126E+00    3.52827751E+00   
                   9.00000000E+01    1.60000000E+02    2.66394466E-02   -1.97260931E-01   -4.38006345E-01   -9.18321826E-02    4.97898891E-01    2.51682673E+00    3.01472562E+00   
                   9.00000000E+01    1.62000000E+02    6.87845449E-03   -2.05976828E-01   -3.96771936E-01   -5.48684640E-02    5.33741097E-01    2.01612988E+00    2.54987097E+00   
                   9.00000000E+01    1.64000000E+02   -1.17799540E-02   -2.11510216E-01   -3.52795785E-01   -2.65792777E-02    5.63920137E-01    1.57294925E+00    2.13686939E+00   
                   9.00000000E+01    1.66000000E+02   -2.87920664E-02   -2.14514285E-01   -3.07440917E-01   -6.17748416E-03    5.88676177E-01    1.18825186E+00    1.77692804E+00   
                   9.00000000E+01    1.68000000E+02   -4.37975486E-02   -2.15641763E-01   -2.61710617E-01    7.28615560E-03    6.08458579E-01    8.61368598E-01    1.46982718E+00   
                   9.00000000E+01    1.70000000E+02   -5.65836322E-02   -2.15502226E-01   -2.16277512E-01    1.48416140E-02    6.23831293E-01    5.90572114E-01    1.21440341E+00   
                   9.00000000E+01    1.72000000E+02   -6.70469635E-02   -2.14633658E-01   -1.71525721E-01    1.75410625E-02    6.35392169E-01    3.73582641E-01    1.00897481E+00   
                   9.00000000E+01    1.74000000E+02   -7.51572478E-02   -2.13485469E-01   -1.27599575E-01    1.64215584E-02    6.43708029E-01    2.07990011E-01    8.51698040E-01   
                   9.00000000E+01    1.76000000E+02   -8.09254341E-02   -2.12409883E-01   -8.44543201E-02    1.24860468E-02    6.49265214E-01    9.15891572E-02    7.40854372E-01   
                   9.00000000E+01    1.78000000E+02   -8.43780669E-02   -2.11658686E-01   -4.19060826E-02    6.69911407E-03    6.52434118E-01    2.26320069E-02    6.75066125E-01   
                   9.00000000E+01    1.80000000E+02   -8.55386479E-02   -2.11382831E-01    3.20111273E-04   -6.28164949E-06    6.53445760E-01    1.28818728E-06    6.53447048E-01   
                   9.00000000E+01    1.82000000E+02   -8.44163622E-02   -2.11632977E-01    4.25442720E-02   -6.71485737E-03    6.52378595E-01    2.33119293E-02    6.75690525E-01   
                   9.00000000E+01    1.84000000E+02   -8.10022821E-02   -2.12359807E-01    8.50865654E-02   -1.25114745E-02    6.49154294E-01    9.29441520E-02    7.42098446E-01   
                   9.00000000E+01    1.86000000E+02   -7.52730680E-02   -2.13413720E-01    1.28222444E-01   -1.64635944E-02    6.43542067E-01    2.10009752E-01    8.53551819E-01   
                   9.00000000E+01    1.88000000E+02   -6.72021459E-02   -2.14544286E-01    1.72136620E-01   -1.76072825E-02    6.35171967E-01    3.76250109E-01    1.01142208E+00   
                   9.00000000E+01    1.90000000E+02   -5.67782525E-02   -2.15400631E-01    2.16875102E-01   -1.49404031E-02    6.23558411E-01    5.93861864E-01    1.21742028E+00   
                   9.00000000E+01    1.92000000E+02   -4.40309955E-02   -2.15534625E-01    2.62295297E-01   -7.42675171E-03    6.08135721E-01    8.65244626E-01    1.47338035E+00   
                   9.00000000E+01    1.94000000E+02   -2.90625944E-02   -2.14409422E-01    3.08015363E-01    5.98510215E-03    5.88307639E-01    1.19266526E+00    1.78097289E+00   
                   9.00000000E+01    1.96000000E+02   -1.20841875E-02   -2.11416305E-01    3.53365532E-01    2.63247058E-02    5.63512272E-01    1.57783587E+00    2.14134814E+00   
                   9.00000000E+01    1.98000000E+02    6.54602412E-03   -2.05902971E-01    3.97345941E-01    5.45414374E-02    5.33302746E-01    2.02140835E+00    2.55471109E+00   
                   9.00000000E+01    2.00000000E+02    2.62869091E-02   -1.97216004E-01    4.38597476E-01    9.14234242E-02    4.97441715E-01    2.52239717E+00    3.01983888E+00   
                   9.00000000E+01    2.02000000E+02    4.63864722E-02   -1.84759334E-01    4.75393945E-01    1.37494179E-01    4.56004890E-01    3.07755509E+00    3.53355998E+00   
                   9.00000000E+01    2.04000000E+02    6.58689511E-02   -1.68068622E-01    5.05665265E-01    1.92890553E-01    4.09484992E-01    3.68074180E+00    4.09022679E+00   
                   9.00000000E+01    2.06000000E+02    8.35450234E-02   -1.46898816E-01    5.27061705E-01    2.57229657E-01    3.58883394E-01    4.32234313E+00    4.68122652E+00   
                   9.00000000E+01    2.08000000E+02    9.80532532E-02   -1.21318537E-01    5.37068109E-01    3.29477150E-01    3.05772819E-01    4.98881578E+00    5.29458860E+00   
                   9.00000000E+01    2.10000000E+02    1.07939510E-01   -9.18008381E-02    5.33173818E-01    4.07834331E-01    2.52311756E-01    5.66244632E+00    5.91475808E+00   
                   9.00000000E+01    2.12000000E+02    1.11777765E-01   -5.92957534E-02    5.13098408E-01    4.89665856E-01    2.01190798E-01    6.32142008E+00    6.52261088E+00   
                   9.00000000E+01    2.14000000E+02    1.08330167E-01   -2.52667770E-02    4.75065180E-01    5.71492677E-01    1.55494198E-01    6.94029094E+00    7.09578514E+00   
                   9.00000000E+01    2.16000000E+02    9.67366690E-02    8.32784978E-03    4.18104049E-01    6.49074521E-01    1.18467401E-01    7.49092322E+00    7.60939062E+00   
                   9.00000000E+01    2.18000000E+02    7.67154192E-02    3.91262655E-02    3.42354062E-01    7.17601735E-01    9.31937149E-02    7.94393868E+00    8.03713239E+00   
                   9.00000000E+01    2.20000000E+02    4.87459256E-02    6.45375991E-02    2.49325074E-01    7.72006541E-01    8.21999848E-02    8.27064594E+00    8.35284592E+00   
                   9.00000000E+01    2.22000000E+02    1.41996172E-02    8.20002295E-02    1.42070360E-01    8.07388523E-01    8.70304954E-02    8.44535773E+00    8.53238822E+00   
                   9.00000000E+01    2.24000000E+02   -2.46206825E-02    8.93086027E-02    2.52201057E-02    8.19529279E-01    1.07847163E-01    8.44792225E+00    8.55576941E+00   
                   9.00000000E+01    2.26000000E+02   -6.45672605E-02    8.49755451E-02   -9.51678077E-02    8.05448874E-01    1.43128126E-01    8.26621891E+00    8.40934703E+00   
                   9.00000000E+01    2.28000000E+02   -1.01882719E-01    6.85793527E-02   -2.11966650E-01    7.63935672E-01    1.89541282E-01    7.89831040E+00    8.08785168E+00   
                   9.00000000E+01    2.30000000E+02   -1.32585422E-01    4.10317546E-02   -3.17549321E-01    6.95966022E-01    2.42059700E-01    7.35391894E+00    7.59597864E+00   
                   9.00000000E+01    2.32000000E+02   -1.52978148E-01    4.69882345E-03   -4.04531440E-01    6.04926269E-01    2.94359601E-01    6.65491710E+00    6.94927671E+00   
                   9.00000000E+01    2.34000000E+02   -1.60221033E-01   -3.66838366E-02   -4.66615660E-01    4.96560917E-01    3.39499141E-01    5.83460254E+00    6.17410169E+00   
                   9.00000000E+01    2.36000000E+02   -1.52881117E-01   -7.83355581E-02   -4.99429178E-01    3.78599728E-01    3.70822234E-01    4.93565892E+00    5.30648116E+00   
                   9.00000000E+01    2.38000000E+02   -1.31352950E-01   -1.14989432E-01   -5.01223850E-01    2.60061850E-01    3.82974809E-01    4.00688170E+00    4.38985650E+00   
                   9.00000000E+01    2.40000000E+02   -9.80451843E-02   -1.41631494E-01   -4.73305937E-01    1.50291330E-01    3.72873601E-01    3.09894231E+00    3.47181591E+00   
                   9.00000000E+01    2.42000000E+02   -5.72520471E-02   -1.54317162E-01   -4.20085578E-01    5.78362506E-02    3.40442878E-01    2.25964612E+00    2.60008899E+00   
                   9.00000000E+01    2.44000000E+02   -1.46763228E-02   -1.50923934E-01   -3.48685653E-01   -1.06689902E-02    2.88943940E-01    1.52927090E+00    1.81821484E+00   
                   9.00000000E+01    2.46000000E+02    2.33635654E-02   -1.31684746E-01   -2.68120343E-01   -5.14346246E-02    2.24771260E-01    9.36622360E-01    1.16139362E+00   
                   9.00000000E+01    2.48000000E+02    5.09374862E-02   -9.93638825E-02   -1.88134195E-01   -6.40847606E-02    1.56675104E-01    4.96388374E-01    6.53063479E-01   
                   9.00000000E+01    2.50000000E+02    6.35512720E-02   -5.89896090E-02   -1.17866737E-01   -5.17355892E-02    9.44807368E-02    2.08213939E-01    3.02694675E-01   
                   9.00000000E+01    2.52000000E+02    5.90356265E-02   -1.71388936E-02   -6.45583142E-02   -2.05313754E-02    4.74876469E-02    5.76710120E-02    1.05158659E-01   
                   9.00000000E+01    2.54000000E+02    3.80792692E-02    1.91350163E-02   -3.25250240E-02    2.13148706E-02    2.28227859E-02    1.90028769E-02    4.18256628E-02   
                   9.00000000E+01    2.56000000E+02    4.26100806E-03    4.35527974E-02   -2.25969318E-02    6.48305860E-02    2.40646293E-02    5.92331738E-02    8.32978031E-02   
                   9.00000000E+01    2.58000000E+02   -3.64724607E-02    5.17987422E-02   -3.21365020E-02    1.01720284E-01    5.04332446E-02    1.43002418E-01    1.93435663E-01   
                   9.00000000E+01    2.60000000E+02   -7.68209072E-02    4.24009079E-02   -5.56466623E-02    1.25671253E-01    9.67521163E-02    2.37376414E-01    3.34128530E-01   
                   9.00000000E+01    2.62000000E+02   -1.09462055E-01    1.70985650E-02   -8.58620809E-02    1.33286462E-01    1.54243434E-01    3.15888119E-01    4.70131553E-01   
                   9.00000000E+01    2.64000000E+02   -1.28442732E-01   -1.94090877E-02   -1.15118791E-01    1.24471377E-01    2.12048057E-01    3.61226102E-01    5.73274158E-01   
                   9.00000000E+01    2.66000000E+02   -1.30343236E-01   -6.03098742E-02   -1.36739533E-01    1.02209066E-01    2.59202002E-01    3.66239244E-01    6.25441247E-01   
                   9.00000000E+01    2.68000000E+02   -1.14964074E-01   -9.79663951E-02   -1.46169664E-01    7.17814827E-02    2.86691101E-01    3.33236925E-01    6.19928026E-01   
                   9.00000000E+01    2.70000000E+02   -8.53796596E-02   -1.25387337E-01   -1.41652971E-01    3.96063894E-02    2.89173181E-01    2.71863757E-01    5.61036938E-01   
                   9.00000000E+01    2.72000000E+02   -4.73381740E-02   -1.37578448E-01   -1.24336030E-01    1.19333827E-02    2.66014134E-01    1.96058679E-01    4.62072812E-01   
                   9.00000000E+01    2.74000000E+02   -8.12934121E-03   -1.32491528E-01   -9.78109833E-02   -6.33768585E-03    2.21420596E-01    1.20727067E-01    3.42147663E-01   
                   9.00000000E+01    2.76000000E+02    2.48422343E-02   -1.11376766E-01   -6.72215415E-02   -1.24903222E-02    1.63638279E-01    5.87445631E-02    2.22382843E-01   
                   9.00000000E+01    2.78000000E+02    4.54790713E-02   -7.84748633E-02   -3.81396630E-02   -6.33620231E-03    1.03379134E-01    1.87839765E-02    1.22163111E-01   
                   9.00000000E+01    2.80000000E+02    5.01164050E-02   -4.01288485E-02   -1.54535129E-02    9.95940304E-03    5.17983099E-02    4.24744293E-03    5.60457528E-02   
                   9.00000000E+01    2.82000000E+02    3.81324169E-02   -3.51695515E-03   -2.48628648E-03    3.24929405E-02    1.84279566E-02    1.33451438E-02    3.17731004E-02   
                   9.00000000E+01    2.84000000E+02    1.19429495E-02    2.47204136E-02   -4.99008717E-04    5.65163644E-02    9.47168684E-03    4.01413666E-02    4.96130534E-02   
                   9.00000000E+01    2.86000000E+02   -2.35846395E-02    3.96792007E-02   -8.63722358E-03    7.74058192E-02    2.67748415E-02    7.62309025E-02    1.03005744E-01   
                   9.00000000E+01    2.88000000E+02   -6.21452363E-02    3.89898223E-02   -2.42849802E-02    9.15077893E-02    6.76351804E-02    1.12637856E-01    1.80273036E-01   
                   9.00000000E+01    2.90000000E+02   -9.72077403E-02    2.30885532E-02   -4.37115055E-02    9.67124834E-02    1.25442865E-01    1.41547601E-01    2.66990466E-01   
                   9.00000000E+01    2.92000000E+02   -1.23174843E-01   -5.04619703E-03   -6.28514510E-02    9.26771693E-02    1.90977494E-01    1.57574278E-01    3.48551771E-01   
                   9.00000000E+01    2.94000000E+02   -1.36275494E-01   -4.05929284E-02   -7.80540157E-02    8.07015921E-02    2.54076884E-01    1.58401317E-01    4.12478202E-01   
                   9.00000000E+01    2.96000000E+02   -1.35050720E-01   -7.78462419E-02   -8.66653181E-02    6.33253656E-02    3.05346901E-01    1.44776895E-01    4.50123796E-01   
                   9.00000000E+01    2.98000000E+02   -1.20389109E-01   -1.11230940E-01   -8.73606625E-02    4.37605430E-02    3.37606349E-01    1.19969513E-01    4.57575861E-01   
                   9.00000000E+01    3.00000000E+02   -9.51602093E-02   -1.36181520E-01   -8.02039655E-02    2.52862057E-02    3.46842783E-01    8.88702310E-02    4.35713014E-01   
                   9.00000000E+01    3.02000000E+02   -6.35632624E-02   -1.49749101E-01   -6.64664400E-02    1.07180936E-02    3.32570024E-01    5.69591505E-02    3.89529174E-01   
                   9.00000000E+01    3.04000000E+02   -3.03440739E-02   -1.50868755E-01   -4.82753752E-02    2.03288760E-03    2.97598600E-01    2.93380079E-02    3.26936608E-01   
                   9.00000000E+01    3.06000000E+02   -3.26597215E-05   -1.40292591E-01   -2.81816758E-02    1.84329902E-04    2.47331457E-01    9.98072459E-03    2.57312182E-01   
                   9.00000000E+01    3.08000000E+02    2.36749802E-02   -1.20252726E-01   -8.73235968E-03    5.10728230E-03    1.88762252E-01    1.28602274E-03    1.90048274E-01   
                   9.00000000E+01    3.10000000E+02    3.83147258E-02   -9.39541953E-02    7.88376486E-03    1.58739444E-02    1.29375925E-01    3.94754763E-03    1.33323473E-01   
                   9.00000000E+01    3.12000000E+02    4.28076469E-02   -6.50083201E-02    2.00755862E-02    3.09479661E-02    7.61343154E-02    1.71003896E-02    9.32347050E-02   
                   9.00000000E+01    3.14000000E+02    3.73904018E-02   -3.69053914E-02    2.69607586E-02    4.84775650E-02    3.46838120E-02    3.86661796E-02    7.33499916E-02   
                   9.00000000E+01    3.16000000E+02    2.33765836E-02   -1.25987565E-02    2.83587059E-02    6.65755568E-02    8.86172069E-03    6.58040632E-02    7.46657839E-02   
                   9.00000000E+01    3.18000000E+02    2.81852737E-03    5.76098637E-03    2.46922907E-02    8.35483342E-02    5.16893283E-04    9.53791722E-02    9.58960655E-02   
                   9.00000000E+01    3.20000000E+02   -2.18607593E-02    1.69352403E-02    1.68326684E-02    9.80528358E-02    9.60944279E-03    1.24378133E-01    1.33987576E-01   
                   9.00000000E+01    3.22000000E+02   -4.82074374E-02    2.05692391E-02    5.92192889E-03    1.09176635E-01    3.45204562E-02    1.50226020E-01    1.84746477E-01   