##File Type: Far field
##File Format: 5
##Source: Thin_wire_XY_rad_theta450.0008
##Date: 2020-09-16 11:26:48
** File exported by POSTFEKO version 2018-319328 (x64)

#Configuration Name: StandardConfiguration1
#Request Name: FarField1
#Frequency: 3.00000000E+08
#Coordinate System: Spherical
#No. of Theta Samples: 1
#No. of Phi Samples: 181
#Result Type: RCS
#Incident Wave Direction: (4.50000000E+01, 0.00000000E+00)
#No. of Header Lines: 1
#                 "Theta"           "Phi"             "Re(Etheta)"      "Im(Etheta)"      "Re(Ephi)"        "Im(Ephi)"        "RCS(Theta)"      "RCS(Phi)"        "RCS(Total)"      
                   9.00000000E+01    0.00000000E+00   -3.90247549E-17    1.26708697E-17    0.00000000E+00    0.00000000E+00    2.11552642E-32    0.00000000E+00    2.11552642E-32   
                   9.00000000E+01    2.00000000E+00   -3.89668464E-17    1.28099184E-17    2.22227709E-02   -7.30548933E-03    2.11430333E-32    6.87659095E-03    6.87659095E-03   
                   9.00000000E+01    4.00000000E+00   -3.87890170E-17    1.32249326E-17    4.42967278E-02   -1.51027607E-02    2.11050521E-32    2.75240396E-02    2.75240396E-02   
                   9.00000000E+01    6.00000000E+00   -3.84791032E-17    1.39092935E-17    6.60487043E-02   -2.38750578E-02    2.10374846E-32    6.19829913E-02    6.19829913E-02   
                   9.00000000E+01    8.00000000E+00   -3.80173530E-17    1.48512416E-17    8.72576572E-02   -3.40866590E-02    2.09340468E-32    1.10279943E-01    1.10279943E-01   
                   9.00000000E+01    1.00000000E+01   -3.73772653E-17    1.60328433E-17    1.07632998E-01   -4.61687869E-02    2.07861847E-32    1.72365607E-01    1.72365607E-01   
                   9.00000000E+01    1.20000000E+01   -3.65268743E-17    1.74286641E-17    1.26796180E-01   -6.05003323E-02    2.05833491E-32    2.48029513E-01    2.48029513E-01   
                   9.00000000E+01    1.40000000E+01   -3.54305711E-17    1.90042820E-17    1.44267450E-01   -7.73823062E-02    2.03133886E-32    3.36792787E-01    3.36792787E-01   
                   9.00000000E+01    1.60000000E+01   -3.40515456E-17    2.07148259E-17    1.59460239E-01   -9.70056143E-02    1.99630843E-32    4.37782910E-01    4.37782910E-01   
                   9.00000000E+01    1.80000000E+01   -3.23549110E-17    2.25037793E-17    1.71686201E-01   -1.19412734E-01    1.95188452E-32    5.49597165E-01    5.49597165E-01   
                   9.00000000E+01    2.00000000E+01   -3.03115117E-17    2.43023422E-17    1.80174202E-01   -1.44455188E-01    1.89675740E-32    6.70165105E-01    6.70165105E-01   
                   9.00000000E+01    2.20000000E+01   -2.79023297E-17    2.60296856E-17    1.84106519E-01   -1.71750347E-01    1.82976980E-32    7.96624861E-01    7.96624861E-01   
                   9.00000000E+01    2.40000000E+01   -2.51232813E-17    2.75944447E-17    1.82674801E-01   -2.00642967E-01    1.75003380E-32    9.25232753E-01    9.25232753E-01   
                   9.00000000E+01    2.60000000E+01   -2.19900488E-17    2.88977677E-17    1.75156844E-01   -2.30178743E-01    1.65705595E-32    1.05132989E+00    1.05132989E+00   
                   9.00000000E+01    2.80000000E+01   -1.85424333E-17    2.98381456E-17    1.61012738E-01   -2.59098761E-01    1.55086200E-32    1.16939214E+00    1.16939214E+00   
                   9.00000000E+01    3.00000000E+01   -1.48475663E-17    3.03180812E-17    1.39995407E-01   -2.85864501E-01    1.43210917E-32    1.27318983E+00    1.27318983E+00   
                   9.00000000E+01    3.20000000E+01   -1.10012173E-17    3.02524121E-17    1.12266223E-01   -3.08722567E-01    1.30217158E-32    1.35607887E+00    1.35607887E+00   
                   9.00000000E+01    3.40000000E+01   -7.12642189E-18    2.95777839E-17    7.85015281E-02   -3.25815854E-01    1.16318246E-32    1.41143540E+00    1.41143540E+00   
                   9.00000000E+01    3.60000000E+01   -3.36876635E-18    2.82624126E-17    3.99715579E-02   -3.35343133E-01    1.01801746E-32    1.43322903E+00    1.43322903E+00   
                   9.00000000E+01    3.80000000E+01    1.12055510E-19    2.63149315E-17   -1.42975688E-03   -3.35761752E-01    8.70206306E-33    1.41670747E+00    1.41670747E+00   
                   9.00000000E+01    4.00000000E+01    3.15434955E-18    2.37908501E-17   -4.32257455E-02   -3.26018793E-01    7.23765735E-33    1.35913741E+00    1.35913741E+00   
                   9.00000000E+01    4.20000000E+01    5.60952439E-18    2.07950674E-17   -8.24864517E-02   -3.05785518E-01    5.82955933E-33    1.26051753E+00    1.26051753E+00   
                   9.00000000E+01    4.40000000E+01    7.35883197E-18    1.74790423E-17   -1.16055363E-01   -2.75660132E-01    4.51973807E-33    1.12415429E+00    1.12415429E+00   
                   9.00000000E+01    4.60000000E+01    8.32972091E-18    1.40317117E-17   -1.40868020E-01   -2.37297200E-01    3.34608751E-33    9.56976374E-01    9.56976374E-01   
                   9.00000000E+01    4.80000000E+01    8.50928760E-18    1.06640525E-17   -1.54338725E-01   -1.93421159E-01    2.33897845E-33    7.69466354E-01    7.69466354E-01   
                   9.00000000E+01    5.00000000E+01    7.95215973E-18    7.58826054E-18   -1.54771399E-01   -1.47688897E-01    1.51825058E-33    5.75114985E-01    5.75114985E-01   
                   9.00000000E+01    5.20000000E+01    6.78048100E-18    4.99370510E-18   -1.41732619E-01   -1.04383583E-01    8.91106638E-34    3.89357279E-01    3.89357279E-01   
                   9.00000000E+01    5.40000000E+01    5.17455690E-18    3.02289056E-18   -1.16313807E-01   -6.79486023E-02    4.51307459E-34    2.28028283E-01    2.28028283E-01   
                   9.00000000E+01    5.60000000E+01    3.35413224E-18    1.75133873E-18   -8.12104444E-02   -4.24035149E-02    1.79917634E-34    1.05471991E-01    1.05471991E-01   
                   9.00000000E+01    5.80000000E+01    1.55201919E-18    1.17533591E-18   -4.05627141E-02   -3.07179286E-02    4.76287824E-35    3.25333900E-02    3.25333900E-02   
                   9.00000000E+01    6.00000000E+01   -1.64350941E-20    1.21069331E-18    4.64891886E-04   -3.42463203E-02    1.84229076E-35    1.47406867E-02    1.47406867E-02   
                   9.00000000E+01    6.20000000E+01   -1.18317239E-18    1.70403621E-18    3.63406596E-02   -5.23387805E-02    5.40810889E-35    5.10193578E-02    5.10193578E-02   
                   9.00000000E+01    6.40000000E+01   -1.85109265E-18    2.45586832E-18    6.19819913E-02   -8.22323017E-02    1.18850637E-34    1.33252772E-01    1.33252772E-01   
                   9.00000000E+01    6.60000000E+01   -2.00665460E-18    3.25216638E-18    7.36052228E-02   -1.19291297E-01    1.83509837E-34    2.46905840E-01    2.46905840E-01   
                   9.00000000E+01    6.80000000E+01   -1.71821588E-18    3.89911231E-18    6.94524094E-02   -1.57606938E-01    2.28146764E-34    3.72763592E-01    3.72763592E-01   
                   9.00000000E+01    7.00000000E+01   -1.11961649E-18    4.25435558E-18    5.02368686E-02   -1.90891707E-01    2.43198007E-34    4.89628358E-01    4.89628358E-01   
                   9.00000000E+01    7.20000000E+01   -3.81659615E-19    4.24836920E-18    1.91831231E-02   -2.13533174E-01    2.28636378E-34    5.77605796E-01    5.77605796E-01   
                   9.00000000E+01    7.40000000E+01    3.22982639E-19    3.89117610E-18   -1.83950886E-02   -2.21617265E-01    1.91581473E-34    6.21439594E-01    6.21439594E-01   
                   9.00000000E+01    7.60000000E+01    8.54086215E-19    3.26273864E-18   -5.59435212E-02   -2.13712720E-01    1.42941545E-34    6.13274127E-01    6.13274127E-01   
                   9.00000000E+01    7.80000000E+01    1.12987872E-18    2.48899222E-18   -8.68113394E-02   -1.91235347E-01    9.38922544E-35    5.54267000E-01    5.54267000E-01   
                   9.00000000E+01    8.00000000E+01    1.13886685E-18    1.70896715E-18   -1.05480778E-01   -1.58282933E-01    5.29997542E-35    4.54647285E-01    4.54647285E-01   
                   9.00000000E+01    8.20000000E+01    9.34875511E-19    1.04074416E-18   -1.08635158E-01   -1.20937392E-01    2.45941546E-35    3.32097135E-01    3.32097135E-01   
                   9.00000000E+01    8.40000000E+01    6.16765868E-19    5.54425686E-19   -9.58339214E-02   -8.61474189E-02    8.64299862E-36    2.08671097E-01    2.08671097E-01   
                   9.00000000E+01    8.60000000E+01    2.98160960E-19    2.58640331E-19   -6.96347777E-02   -6.04048296E-02    1.95777494E-36    1.06785822E-01    1.06785822E-01   
                   9.00000000E+01    8.80000000E+01    7.50893124E-20    1.03673914E-19   -3.51166813E-02   -4.84847136E-02    2.05921161E-37    4.50372284E-02    4.50372284E-02   
                   9.00000000E+01    9.00000000E+01   -4.16890482E-36    1.96905096E-34    1.11188602E-03   -5.25164358E-02    4.87436906E-67    3.46732846E-02    3.46732846E-02   
                   9.00000000E+01    9.20000000E+01    6.88921252E-20   -1.53073117E-19    3.22184706E-02   -7.15870169E-02    3.54088960E-37    7.74431597E-02    7.74431597E-02   
                   9.00000000E+01    9.40000000E+01    2.24760557E-19   -4.36588044E-19    5.24922895E-02   -1.01964091E-01    3.03008406E-36    1.65274369E-01    1.65274369E-01   
                   9.00000000E+01    9.60000000E+01    3.76144221E-19   -8.87425229E-19    5.84458018E-02   -1.37889342E-01    1.16742590E-35    2.81855931E-01    2.81855931E-01   
                   9.00000000E+01    9.80000000E+01    4.25491824E-19   -1.48678033E-18    4.94433438E-02   -1.72768046E-01    3.00532172E-35    4.05811361E-01    4.05811361E-01   
                   9.00000000E+01    1.00000000E+02    2.99456163E-19   -2.16474344E-18    2.77353486E-02   -2.00496505E-01    6.00143241E-35    5.14820302E-01    5.14820302E-01   
                   9.00000000E+01    1.02000000E+02   -2.72097233E-20   -2.81972278E-18   -2.09058945E-03   -2.16646183E-01    9.99224630E-35    5.89864671E-01    5.89864671E-01   
                   9.00000000E+01    1.04000000E+02   -5.20678297E-19   -3.34750587E-18   -3.41049613E-02   -2.19265061E-01    1.44222997E-34    6.18772050E-01    6.18772050E-01   
                   9.00000000E+01    1.06000000E+02   -1.09302829E-18   -3.67227972E-18   -6.22521146E-02   -2.09150285E-01    1.84478709E-34    5.98400106E-01    5.98400106E-01   
                   9.00000000E+01    1.08000000E+02   -1.62203405E-18   -3.77154500E-18   -8.15273024E-02   -1.89566852E-01    2.11813040E-34    5.35104870E-01    5.35104870E-01   
                   9.00000000E+01    1.10000000E+02   -1.98088557E-18   -3.68856470E-18   -8.88817636E-02   -1.65504833E-01    2.20281152E-34    4.43490061E-01    4.43490061E-01   
                   9.00000000E+01    1.12000000E+02   -2.07062551E-18   -3.52922628E-18   -8.36972421E-02   -1.42655688E-01    2.10397840E-34    3.43764045E-01    3.43764045E-01   
                   9.00000000E+01    1.14000000E+02   -1.84765857E-18   -3.44404083E-18   -6.77731586E-02   -1.26329361E-01    1.91954571E-34    2.58267924E-01    2.58267924E-01   
                   9.00000000E+01    1.16000000E+02   -1.34013002E-18   -3.59944292E-18   -4.48729174E-02   -1.20523757E-01    1.85378318E-34    2.07842174E-01    2.07842174E-01   
                   9.00000000E+01    1.18000000E+02   -6.49774837E-19   -4.14477751E-18   -1.99575704E-02   -1.27305159E-01    2.21185564E-34    2.08663428E-01    2.08663428E-01   
                   9.00000000E+01    1.20000000E+02    6.07976956E-20   -5.18194480E-18    1.71975623E-03   -1.46579270E-01    3.37485569E-34    2.70031699E-01    2.70031699E-01   
                   9.00000000E+01    1.22000000E+02    5.92343923E-19   -6.74365190E-18    1.54811727E-02   -1.76248352E-01    5.75888017E-34    3.93366962E-01    3.93366962E-01   
                   9.00000000E+01    1.24000000E+02    7.39598290E-19   -8.78401114E-18    1.79071967E-02   -2.12678987E-01    9.76480602E-34    5.72436124E-01    5.72436124E-01   
                   9.00000000E+01    1.26000000E+02    3.22308402E-19   -1.11824713E-17    7.24485555E-03   -2.51359843E-01    1.57270073E-33    7.94625131E-01    7.94625131E-01   
                   9.00000000E+01    1.28000000E+02   -7.88745250E-19   -1.37594459E-17   -1.64871681E-02   -2.87614155E-01    2.38691263E-33    1.04292995E+00    1.04292995E+00   
                   9.00000000E+01    1.30000000E+02   -2.65466260E-18   -1.63000482E-17   -5.16672023E-02   -3.17244793E-01    3.42733690E-33    1.29827898E+00    1.29827898E+00   
                   9.00000000E+01    1.32000000E+02   -5.26213374E-18   -1.85813577E-17   -9.54428916E-02   -3.37022697E-01    4.68671469E-33    1.54181380E+00    1.54181380E+00   
                   9.00000000E+01    1.34000000E+02   -8.52772392E-18   -2.03986591E-17   -1.44216547E-01   -3.44971790E-01    6.14278590E-33    1.75682822E+00    1.75682822E+00   
                   9.00000000E+01    1.36000000E+02   -1.23108124E-17   -2.15869303E-17   -1.94152524E-01   -3.40445201E-01    7.76038306E-33    1.93017112E+00    1.93017112E+00   
                   9.00000000E+01    1.38000000E+02   -1.64321981E-17   -2.20351946E-17   -2.41630773E-01   -3.24021233E-01    9.49473413E-33    2.05303319E+00    2.05303319E+00   
                   9.00000000E+01    1.40000000E+02   -2.06950245E-17   -2.16928477E-17   -2.83595033E-01   -2.97268739E-01    1.12954542E-32    2.12113859E+00    2.12113859E+00   
                   9.00000000E+01    1.42000000E+02   -2.49049374E-17   -2.05684123E-17   -3.17771126E-01   -2.62439830E-01    1.31106891E-32    2.13443767E+00    2.13443767E+00   
                   9.00000000E+01    1.44000000E+02   -2.88870860E-17   -1.87221674E-17   -3.42755095E-01   -2.22144881E-01    1.48909392E-32    2.09644011E+00    2.09644011E+00   
                   9.00000000E+01    1.46000000E+02   -3.24984943E-17   -1.62546551E-17   -3.57989115E-01   -1.79054129E-01    1.65922078E-32    2.01334102E+00    2.01334102E+00   
                   9.00000000E+01    1.48000000E+02   -3.56352558E-17   -1.32931915E-17   -3.63653900E-01   -1.35655570E-01    1.81782654E-32    1.89308091E+00    1.89308091E+00   
                   9.00000000E+01    1.50000000E+02   -3.82347934E-17   -9.97830241E-18   -3.60509957E-01   -9.40838712E-02    1.96219598E-32    1.74445357E+00    1.74445357E+00   
                   9.00000000E+01    1.52000000E+02   -4.02739832E-17   -6.45156851E-18   -3.49718086E-01   -5.60220274E-02    2.09056210E-32    1.57634070E+00    1.57634070E+00   
                   9.00000000E+01    1.54000000E+02   -4.17642502E-17   -2.84584545E-18   -3.32663848E-01   -2.26679491E-02    2.20206975E-32    1.39711742E+00    1.39711742E+00   
                   9.00000000E+01    1.56000000E+02   -4.27448199E-17    7.21691898E-19   -3.10803409E-01    5.24752010E-03    2.29668075E-32    1.21424184E+00    1.21424184E+00   
                   9.00000000E+01    1.58000000E+02   -4.32752142E-17    4.15366367E-18   -2.85540639E-01    2.74069072E-02    2.37504039E-32    1.03401872E+00    1.03401872E+00   
                   9.00000000E+01    1.60000000E+02   -4.34278728E-17    7.37405410E-18   -2.58138968E-01    4.38320045E-02    2.43832428E-32    8.61512309E-01    8.61512309E-01   
                   9.00000000E+01    1.62000000E+02   -4.32815248E-17    1.03277196E-17   -2.29666544E-01    5.48024054E-02    2.48808129E-32    7.00575475E-01    7.00575475E-01   
                   9.00000000E+01    1.64000000E+02   -4.29156799E-17    1.29783961E-17   -2.00970161E-01    6.07766290E-02    2.52608472E-32    5.53960854E-01    5.53960854E-01   
                   9.00000000E+01    1.66000000E+02   -4.24063845E-17    1.53057551E-17   -1.72671813E-01    6.23225136E-02    2.55419975E-32    4.23482300E-01    4.23482300E-01   
                   9.00000000E+01    1.68000000E+02   -4.18232146E-17    1.73019893E-17   -1.45181430E-01    6.00606047E-02    2.57427143E-32    3.10199903E-01    3.10199903E-01   
                   9.00000000E+01    1.70000000E+02   -4.12273637E-17    1.89683149E-17   -1.18719888E-01    5.46218829E-02    2.58803459E-32    2.14608000E-01    2.14608000E-01   
                   9.00000000E+01    1.72000000E+02   -4.06706111E-17    2.03116679E-17   -9.33474311E-02    4.66194623E-02    2.59704464E-32    1.36811549E-01    1.36811549E-01   
                   9.00000000E+01    1.74000000E+02   -4.01949372E-17    2.13417817E-17   -6.89939032E-02    3.66327933E-02    2.60262683E-32    7.66815043E-02    7.66815043E-02   
                   9.00000000E+01    1.76000000E+02   -3.98325551E-17    2.20687518E-17   -4.54884395E-02    2.52023270E-02    2.60584084E-32    3.39839324E-02    3.39839324E-02   
                   9.00000000E+01    1.78000000E+02   -3.96061558E-17    2.25011358E-17   -2.25873687E-02    1.28323853E-02    2.60745742E-32    8.48053252E-03    8.48053252E-03   
                   9.00000000E+01    1.80000000E+02   -3.95292025E-17    2.26446043E-17   -7.90584049E-17    4.52892086E-17    2.60794407E-32    1.04317763E-31    1.30397204E-31   
                   9.00000000E+01    1.82000000E+02   -3.96061553E-17    2.25011363E-17    2.25873684E-02   -1.28323855E-02    2.60745740E-32    8.48053244E-03    8.48053244E-03   
                   9.00000000E+01    1.84000000E+02   -3.98325542E-17    2.20687526E-17    4.54884384E-02   -2.52023280E-02    2.60584079E-32    3.39839318E-02    3.39839318E-02   
                   9.00000000E+01    1.86000000E+02   -4.01949360E-17    2.13417828E-17    6.89939011E-02   -3.66327951E-02    2.60262677E-32    7.66815023E-02    7.66815023E-02   
                   9.00000000E+01    1.88000000E+02   -4.06706098E-17    2.03116691E-17    9.33474280E-02   -4.66194649E-02    2.59704456E-32    1.36811545E-01    1.36811545E-01   
                   9.00000000E+01    1.90000000E+02   -4.12273624E-17    1.89683159E-17    1.18719885E-01   -5.46218858E-02    2.58803450E-32    2.14607992E-01    2.14607992E-01   
                   9.00000000E+01    1.92000000E+02   -4.18232134E-17    1.73019899E-17    1.45181426E-01   -6.00606067E-02    2.57427133E-32    3.10199891E-01    3.10199891E-01   
                   9.00000000E+01    1.94000000E+02   -4.24063835E-17    1.53057550E-17    1.72671809E-01   -6.23225133E-02    2.55419965E-32    4.23482283E-01    4.23482283E-01   
                   9.00000000E+01    1.96000000E+02   -4.29156793E-17    1.29783952E-17    2.00970158E-01   -6.07766245E-02    2.52608462E-32    5.53960832E-01    5.53960832E-01   
                   9.00000000E+01    1.98000000E+02   -4.32815244E-17    1.03277176E-17    2.29666542E-01   -5.48023948E-02    2.48808120E-32    7.00575449E-01    7.00575449E-01   
                   9.00000000E+01    2.00000000E+02   -4.34278726E-17    7.37405096E-18    2.58138967E-01   -4.38319858E-02    2.43832420E-32    8.61512281E-01    8.61512281E-01   
                   9.00000000E+01    2.02000000E+02   -4.32752140E-17    4.15365941E-18    2.85540638E-01   -2.74068791E-02    2.37504032E-32    1.03401869E+00    1.03401869E+00   
                   9.00000000E+01    2.04000000E+02   -4.27448195E-17    7.21686656E-19    3.10803406E-01   -5.24748199E-03    2.29668070E-32    1.21424181E+00    1.21424181E+00   
                   9.00000000E+01    2.06000000E+02   -4.17642494E-17   -2.84585142E-18    3.32663842E-01    2.26679967E-02    2.20206972E-32    1.39711740E+00    1.39711740E+00   
                   9.00000000E+01    2.08000000E+02   -4.02739819E-17   -6.45157489E-18    3.49718075E-01    5.60220828E-02    2.09056207E-32    1.57634068E+00    1.57634068E+00   
                   9.00000000E+01    2.10000000E+02   -3.82347916E-17   -9.97830882E-18    3.60509940E-01    9.40839316E-02    1.96219597E-32    1.74445356E+00    1.74445356E+00   
                   9.00000000E+01    2.12000000E+02   -3.56352535E-17   -1.32931975E-17    3.63653876E-01    1.35655631E-01    1.81782653E-32    1.89308090E+00    1.89308090E+00   
                   9.00000000E+01    2.14000000E+02   -3.24984916E-17   -1.62546604E-17    3.57989085E-01    1.79054188E-01    1.65922077E-32    2.01334101E+00    2.01334101E+00   
                   9.00000000E+01    2.16000000E+02   -2.88870831E-17   -1.87221719E-17    3.42755060E-01    2.22144934E-01    1.48909392E-32    2.09644010E+00    2.09644010E+00   
                   9.00000000E+01    2.18000000E+02   -2.49049344E-17   -2.05684157E-17    3.17771088E-01    2.62439873E-01    1.31106890E-32    2.13443765E+00    2.13443765E+00   
                   9.00000000E+01    2.20000000E+02   -2.06950218E-17   -2.16928501E-17    2.83594995E-01    2.97268772E-01    1.12954540E-32    2.12113856E+00    2.12113856E+00   
                   9.00000000E+01    2.22000000E+02   -1.64321957E-17   -2.20351960E-17    2.41630738E-01    3.24021254E-01    9.49473392E-33    2.05303314E+00    2.05303314E+00   
                   9.00000000E+01    2.24000000E+02   -1.23108105E-17   -2.15869310E-17    1.94152493E-01    3.40445211E-01    7.76038282E-33    1.93017106E+00    1.93017106E+00   
                   9.00000000E+01    2.26000000E+02   -8.52772245E-18   -2.03986593E-17    1.44216522E-01    3.44971792E-01    6.14278564E-33    1.75682815E+00    1.75682815E+00   
                   9.00000000E+01    2.28000000E+02   -5.26213271E-18   -1.85813575E-17    9.54428730E-02    3.37022693E-01    4.68671445E-33    1.54181372E+00    1.54181372E+00   
                   9.00000000E+01    2.30000000E+02   -2.65466195E-18   -1.63000478E-17    5.16671895E-02    3.17244785E-01    3.42733670E-33    1.29827890E+00    1.29827890E+00   
                   9.00000000E+01    2.32000000E+02   -7.88744871E-19   -1.37594456E-17    1.64871602E-02    2.87614147E-01    2.38691248E-33    1.04292989E+00    1.04292989E+00   
                   9.00000000E+01    2.34000000E+02    3.22308604E-19   -1.11824711E-17   -7.24486008E-03    2.51359837E-01    1.57270066E-33    7.94625092E-01    7.94625092E-01   
                   9.00000000E+01    2.36000000E+02    7.39598413E-19   -8.78401105E-18   -1.79071997E-02    2.12678985E-01    9.76480585E-34    5.72436114E-01    5.72436114E-01   
                   9.00000000E+01    2.38000000E+02    5.92344062E-19   -6.74365206E-18   -1.54811764E-02    1.76248356E-01    5.75888045E-34    3.93366981E-01    3.93366981E-01   
                   9.00000000E+01    2.40000000E+02    6.07979459E-20   -5.18194521E-18   -1.71976331E-03    1.46579281E-01    3.37485622E-34    2.70031742E-01    2.70031742E-01   
                   9.00000000E+01    2.42000000E+02   -6.49774395E-19   -4.14477813E-18    1.99575568E-02    1.27305178E-01    2.21185622E-34    2.08663483E-01    2.08663483E-01   
                   9.00000000E+01    2.44000000E+02   -1.34012934E-18   -3.59944368E-18    4.48728944E-02    1.20523782E-01    1.85378363E-34    2.07842224E-01    2.07842224E-01   
                   9.00000000E+01    2.46000000E+02   -1.84765763E-18   -3.44404160E-18    6.77731243E-02    1.26329389E-01    1.91954595E-34    2.58267956E-01    2.58267956E-01   
                   9.00000000E+01    2.48000000E+02   -2.07062438E-18   -3.52922694E-18    8.36971963E-02    1.42655714E-01    2.10397840E-34    3.43764045E-01    3.43764045E-01   
                   9.00000000E+01    2.50000000E+02   -1.98088434E-18   -3.68856515E-18    8.88817085E-02    1.65504854E-01    2.20281134E-34    4.43490024E-01    4.43490024E-01   
                   9.00000000E+01    2.52000000E+02   -1.62203286E-18   -3.77154521E-18    8.15272425E-02    1.89566863E-01    2.11813011E-34    5.35104798E-01    5.35104798E-01   
                   9.00000000E+01    2.54000000E+02   -1.09302725E-18   -3.67227971E-18    6.22520555E-02    2.09150284E-01    1.84478679E-34    5.98400010E-01    5.98400010E-01   
                   9.00000000E+01    2.56000000E+02   -5.20677491E-19   -3.34750571E-18    3.41049085E-02    2.19265050E-01    1.44222973E-34    6.18771947E-01    6.18771947E-01   
                   9.00000000E+01    2.58000000E+02   -2.72091682E-20   -2.81972256E-18    2.09054680E-03    2.16646166E-01    9.99224468E-35    5.89864576E-01    5.89864576E-01   
                   9.00000000E+01    2.60000000E+02    2.99456501E-19   -2.16474324E-18   -2.77353799E-02    2.00496486E-01    6.00143155E-35    5.14820228E-01    5.14820228E-01   
                   9.00000000E+01    2.62000000E+02    4.25492007E-19   -1.48678018E-18   -4.94433652E-02    1.72768029E-01    3.00532137E-35    4.05811314E-01    4.05811314E-01   
                   9.00000000E+01    2.64000000E+02    3.76144315E-19   -8.87425150E-19   -5.84458165E-02    1.37889329E-01    1.16742581E-35    2.81855910E-01    2.81855910E-01   
                   9.00000000E+01    2.66000000E+02    2.24760607E-19   -4.36588012E-19   -5.24923011E-02    1.01964084E-01    3.03008399E-36    1.65274365E-01    1.65274365E-01   
                   9.00000000E+01    2.68000000E+02    6.88921490E-20   -1.53073110E-19   -3.22184818E-02    7.15870137E-02    3.54088975E-37    7.74431630E-02    7.74431630E-02   
                   9.00000000E+01    2.70000000E+02    1.25068499E-35   -5.90715285E-34   -1.11189806E-03    5.25164355E-02    4.38693216E-66    3.46732846E-02    3.46732846E-02   
                   9.00000000E+01    2.72000000E+02    7.50892841E-20    1.03673919E-19    3.51166681E-02    4.84847159E-02    2.05921120E-37    4.50372195E-02    4.50372195E-02   
                   9.00000000E+01    2.74000000E+02    2.98160897E-19    2.58640355E-19    6.96347629E-02    6.04048352E-02    1.95777462E-36    1.06785805E-01    1.06785805E-01   
                   9.00000000E+01    2.76000000E+02    6.16765755E-19    5.54425753E-19    9.58339038E-02    8.61474292E-02    8.64299781E-36    2.08671077E-01    2.08671077E-01   
                   9.00000000E+01    2.78000000E+02    9.34875315E-19    1.04074430E-18    1.08635135E-01    1.20937408E-01    2.45941536E-35    3.32097122E-01    3.32097122E-01   
                   9.00000000E+01    2.80000000E+02    1.13886652E-18    1.70896738E-18    1.05480747E-01    1.58282954E-01    5.29997544E-35    4.54647286E-01    4.54647286E-01   
                   9.00000000E+01    2.82000000E+02    1.12987817E-18    2.48899253E-18    8.68112972E-02    1.91235370E-01    9.38922579E-35    5.54267021E-01    5.54267021E-01   
                   9.00000000E+01    2.84000000E+02    8.54085396E-19    3.26273897E-18    5.59434675E-02    2.13712741E-01    1.42941554E-34    6.13274165E-01    6.13274165E-01   
                   9.00000000E+01    2.86000000E+02    3.22981538E-19    3.89117634E-18    1.83950259E-02    2.21617279E-01    1.91581488E-34    6.21439641E-01    6.21439641E-01   
                   9.00000000E+01    2.88000000E+02   -3.81660937E-19    4.24836925E-18   -1.91831895E-02    2.13533177E-01    2.28636396E-34    5.77605842E-01    5.77605842E-01   
                   9.00000000E+01    2.90000000E+02   -1.11961790E-18    4.25435537E-18   -5.02369319E-02    1.90891697E-01    2.43198024E-34    4.89628392E-01    4.89628392E-01   
                   9.00000000E+01    2.92000000E+02   -1.71821720E-18    3.89911182E-18   -6.94524627E-02    1.57606918E-01    2.28146773E-34    3.72763607E-01    3.72763607E-01   
                   9.00000000E+01    2.94000000E+02   -2.00665565E-18    3.25216568E-18   -7.36052613E-02    1.19291272E-01    1.83509833E-34    2.46905835E-01    2.46905835E-01   
                   9.00000000E+01    2.96000000E+02   -1.85109329E-18    2.45586757E-18   -6.19820130E-02    8.22322766E-02    1.18850621E-34    1.33252754E-01    1.33252754E-01   
                   9.00000000E+01    2.98000000E+02   -1.18317259E-18    1.70403558E-18   -3.63406657E-02    5.23387612E-02    5.40810679E-35    5.10193379E-02    5.10193379E-02   
                   9.00000000E+01    3.00000000E+02   -1.64348902E-20    1.21069297E-18   -4.64886118E-04    3.42463105E-02    1.84228970E-35    1.47406783E-02    1.47406783E-02   
                   9.00000000E+01    3.02000000E+02    1.55201968E-18    1.17533596E-18    4.05627268E-02    3.07179298E-02    4.76288027E-35    3.25334038E-02    3.25334038E-02   
                   9.00000000E+01    3.04000000E+02    3.35413283E-18    1.75133920E-18    8.12104588E-02    4.24035264E-02    1.79917705E-34    1.05472033E-01    1.05472033E-01   
                   9.00000000E+01    3.06000000E+02    5.17455743E-18    3.02289142E-18    1.16313819E-01    6.79486215E-02    4.51307593E-34    2.28028351E-01    2.28028351E-01   
                   9.00000000E+01    3.08000000E+02    6.78048130E-18    4.99370623E-18    1.41732625E-01    1.04383607E-01    8.91106832E-34    3.89357363E-01    3.89357363E-01   
                   9.00000000E+01    3.10000000E+02    7.95215967E-18    7.58826182E-18    1.54771398E-01    1.47688922E-01    1.51825081E-33    5.75115072E-01    5.75115072E-01   
                   9.00000000E+01    3.12000000E+02    8.50928706E-18    1.06640538E-17    1.54338716E-01    1.93421182E-01    2.33897868E-33    7.69466428E-01    7.69466428E-01   
                   9.00000000E+01    3.14000000E+02    8.32971983E-18    1.40317128E-17    1.40868002E-01    2.37297218E-01    3.34608767E-33    9.56976420E-01    9.56976420E-01   
                   9.00000000E+01    3.16000000E+02    7.35883029E-18    1.74790431E-17    1.16055336E-01    2.75660145E-01    4.51973810E-33    1.12415429E+00    1.12415429E+00   
                   9.00000000E+01    3.18000000E+02    5.60952209E-18    2.07950677E-17    8.24864178E-02    3.05785523E-01    5.82955918E-33    1.26051749E+00    1.26051749E+00   
                   9.00000000E+01    3.20000000E+02    3.15434663E-18    2.37908499E-17    4.32257055E-02    3.26018790E-01    7.23765697E-33    1.35913734E+00    1.35913734E+00   
                   9.00000000E+01    3.22000000E+02    1.12052030E-19    2.63149306E-17    1.42971248E-03    3.35761740E-01    8.70206245E-33    1.41670737E+00    1.41670737E+00   