##File Type: Far field
##File Format: 5
##Source: Thin_wire_XY_rad_theta450.001
##Date: 2020-09-16 11:26:48
** File exported by POSTFEKO version 2018-319328 (x64)

#Configuration Name: StandardConfiguration1
#Request Name: FarField1
#Frequency: 3.00000000E+08
#Coordinate System: Spherical
#No. of Theta Samples: 1
#No. of Phi Samples: 181
#Result Type: RCS
#Incident Wave Direction: (4.50000000E+01, 0.00000000E+00)
#No. of Header Lines: 1
#                 "Theta"           "Phi"             "Re(Etheta)"      "Im(Etheta)"      "Re(Ephi)"        "Im(Ephi)"        "RCS(Theta)"      "RCS(Phi)"        "RCS(Total)"      
                   9.00000000E+01    0.00000000E+00   -3.83670273E-17    1.34067313E-17    0.00000000E+00    0.00000000E+00    2.07567443E-32    0.00000000E+00    2.07567443E-32   
                   9.00000000E+01    2.00000000E+00   -3.83064896E-17    1.35428455E-17    2.18461697E-02   -7.72347729E-03    2.07445119E-32    6.74697528E-03    6.74697528E-03   
                   9.00000000E+01    4.00000000E+00   -3.81208715E-17    1.39489813E-17    4.35337113E-02   -1.59296182E-02    2.07065504E-32    2.70043357E-02    2.70043357E-02   
                   9.00000000E+01    6.00000000E+00   -3.77983112E-17    1.46183000E-17    6.48801369E-02   -2.50920549E-02    2.06390954E-32    6.08092126E-02    6.08092126E-02   
                   9.00000000E+01    8.00000000E+00   -3.73195717E-17    1.55386972E-17    8.56561053E-02   -3.56645112E-02    2.05359822E-32    1.08182951E-01    1.08182951E-01   
                   9.00000000E+01    1.00000000E+01   -3.66588956E-17    1.66918024E-17    1.05564354E-01   -4.80663506E-02    2.03888219E-32    1.69070549E-01    1.69070549E-01   
                   9.00000000E+01    1.20000000E+01   -3.57853091E-17    1.80516993E-17    1.24221976E-01   -6.26630819E-02    2.01872736E-32    2.43256800E-01    2.43256800E-01   
                   9.00000000E+01    1.40000000E+01   -3.46644577E-17    1.95835022E-17    1.41147962E-01   -7.97407954E-02    1.99194339E-32    3.30261080E-01    3.30261080E-01   
                   9.00000000E+01    1.60000000E+01   -3.32610575E-17    2.12419726E-17    1.55758457E-01   -9.94741932E-02    1.95723653E-32    4.29214591E-01    4.29214591E-01   
                   9.00000000E+01    1.80000000E+01   -3.15420118E-17    2.29704150E-17    1.67372681E-01   -1.21888862E-01    1.91327827E-32    5.38726705E-01    5.38726705E-01   
                   9.00000000E+01    2.00000000E+01   -2.94801900E-17    2.47001422E-17    1.75232756E-01   -1.46819745E-01    1.85879069E-32    6.56750651E-01    6.56750651E-01   
                   9.00000000E+01    2.20000000E+01   -2.70587745E-17    2.63508373E-17    1.78540532E-01   -1.73869386E-01    1.79264794E-32    7.80463158E-01    7.80463158E-01   
                   9.00000000E+01    2.40000000E+01   -2.42759616E-17    2.78321494E-17    1.76513824E-01   -2.02371350E-01    1.71399119E-32    9.06177234E-01    9.06177234E-01   
                   9.00000000E+01    2.60000000E+01   -2.11496572E-17    2.90468279E-17    1.68462892E-01   -2.31366049E-01    1.62235139E-32    1.02931135E+00    1.02931135E+00   
                   9.00000000E+01    2.80000000E+01   -1.77216539E-17    2.98956029E-17    1.53885521E-01   -2.59597690E-01    1.51777138E-32    1.14444092E+00    1.14444092E+00   
                   9.00000000E+01    3.00000000E+01   -1.40606323E-17    3.02838537E-17    1.32575528E-01   -2.85541776E-01    1.40091556E-32    1.24545772E+00    1.24545772E+00   
                   9.00000000E+01    3.20000000E+01   -1.02632401E-17    3.01298613E-17    1.04735246E-01   -3.07471949E-01    1.27315259E-32    1.32585855E+00    1.32585855E+00   
                   9.00000000E+01    3.40000000E+01   -6.45249396E-18    2.93741272E-17    7.10778346E-02   -3.23572462E-01    1.13659558E-32    1.37917421E+00    1.37917421E+00   
                   9.00000000E+01    3.60000000E+01   -2.77287237E-18    2.79888915E-17    3.29010733E-02   -3.32097712E-01    9.94083946E-33    1.39953392E+00    1.39953392E+00   
                   9.00000000E+01    3.80000000E+01    6.18248661E-19    2.59866485E-17   -7.88845883E-03   -3.31573070E-01    8.49094746E-33    1.38233757E+00    1.38233757E+00   
                   9.00000000E+01    4.00000000E+01    3.56271512E-18    2.34262086E-17   -4.88217982E-02   -3.21021915E-01    7.05576815E-33    1.32498100E+00    1.32498100E+00   
                   9.00000000E+01    4.20000000E+01    5.91656826E-18    2.04147858E-17   -8.70014439E-02   -3.00193586E-01    5.67709995E-33    1.22755145E+00    1.22755145E+00   
                   9.00000000E+01    4.40000000E+01    7.56649283E-18    1.71047673E-17   -1.19330360E-01   -2.69757480E-01    4.39602906E-33    1.09338524E+00    1.09338524E+00   
                   9.00000000E+01    4.60000000E+01    8.44571688E-18    1.36843213E-17   -1.42829685E-01   -2.31422309E-01    3.24954761E-33    9.29366097E-01    9.29366097E-01   
                   9.00000000E+01    4.80000000E+01    8.54687711E-18    1.03618096E-17   -1.55020512E-01   -1.87939174E-01    2.26717691E-33    7.45845413E-01    7.45845413E-01   
                   9.00000000E+01    5.00000000E+01    7.92924519E-18    7.34503649E-18   -1.54325418E-01   -1.42955073E-01    1.46803471E-33    5.56093158E-01    5.56093158E-01   
                   9.00000000E+01    5.20000000E+01    6.71807255E-18    4.81752942E-18   -1.40428093E-01   -1.00700977E-01    8.58799446E-34    3.75241078E-01    3.75241078E-01   
                   9.00000000E+01    5.40000000E+01    5.09472109E-18    2.91507938E-18   -1.14519256E-01   -6.55252201E-02    4.32960109E-34    2.18758074E-01    2.18758074E-01   
                   9.00000000E+01    5.60000000E+01    3.27765833E-18    1.70640497E-18   -7.93588536E-02   -4.13155762E-02    1.71592057E-34    1.00591340E-01    1.00591340E-01   
                   9.00000000E+01    5.80000000E+01    1.49612261E-18    1.18178393E-18   -3.91018321E-02   -3.08864504E-02    4.56787085E-35    3.12013694E-02    3.12013694E-02   
                   9.00000000E+01    6.00000000E+01   -4.00116107E-20    1.25266172E-18    1.13178988E-03   -3.54334611E-02    1.97387813E-35    1.57935543E-02    1.57935543E-02   
                   9.00000000E+01    6.20000000E+01   -1.16932229E-18    1.76359588E-18    3.59152594E-02   -5.41681314E-02    5.62669929E-35    5.30815096E-02    5.30815096E-02   
                   9.00000000E+01    6.40000000E+01   -1.80153097E-18    2.51563907E-18    6.03224679E-02   -8.42336657E-02    1.20309851E-34    1.34888812E-01    1.34888812E-01   
                   9.00000000E+01    6.60000000E+01   -1.92904197E-18    3.29782081E-18    7.07583477E-02   -1.20965928E-01    1.83429113E-34    2.46797229E-01    2.46797229E-01   
                   9.00000000E+01    6.80000000E+01   -1.62433587E-18    3.92131819E-18    6.56576631E-02   -1.58504527E-01    2.26385722E-34    3.69886267E-01    3.69886267E-01   
                   9.00000000E+01    7.00000000E+01   -1.02291830E-18    4.24978589E-18    4.58980491E-02   -1.90686666E-01    2.40106171E-34    4.83403592E-01    4.83403592E-01   
                   9.00000000E+01    7.20000000E+01   -2.94627836E-19    4.21957643E-18    1.48086981E-02   -2.12085981E-01    2.24832864E-34    5.67996949E-01    5.67996949E-01   
                   9.00000000E+01    7.40000000E+01    3.91109849E-19    3.84535595E-18   -2.22751921E-02   -2.19007633E-01    1.87738175E-34    6.08972951E-01    6.08972951E-01   
                   9.00000000E+01    7.60000000E+01    8.98783384E-19    3.20964993E-18   -5.88712315E-02   -2.10235355E-01    1.39608158E-34    5.98972617E-01    5.98972617E-01   
                   9.00000000E+01    7.80000000E+01    1.15168479E-18    2.43849613E-18   -8.84867531E-02   -1.87355609E-01    9.13907052E-35    5.39499795E-01    5.39499795E-01   
                   9.00000000E+01    8.00000000E+01    1.14257260E-18    1.66874621E-18   -1.05824001E-01   -1.54557707E-01    5.13987938E-35    4.40913781E-01    4.40913781E-01   
                   9.00000000E+01    8.20000000E+01    9.27771223E-19    1.01472737E-18   -1.07809620E-01   -1.17914167E-01    2.37558574E-35    3.20777532E-01    3.20777532E-01   
                   9.00000000E+01    8.40000000E+01    6.06404506E-19    5.42280051E-19   -9.42239588E-02   -8.42602136E-02    8.31634967E-36    2.00784691E-01    2.00784691E-01   
                   9.00000000E+01    8.60000000E+01    2.90216227E-19    2.56425707E-19   -6.77793044E-02   -5.98876093E-02    1.88469926E-36    1.02799947E-01    1.02799947E-01   
                   9.00000000E+01    8.80000000E+01    7.18677467E-20    1.05461218E-19   -3.36100662E-02   -4.93205737E-02    2.04668999E-37    4.47633667E-02    4.47633667E-02   
                   9.00000000E+01    9.00000000E+01   -6.49836730E-36    2.04095914E-34    1.73317551E-03   -5.44342944E-02    5.23984616E-67    3.72730655E-02    3.72730655E-02   
                   9.00000000E+01    9.20000000E+01    6.75293727E-20   -1.58463959E-19    3.15811583E-02   -7.41081274E-02    3.72857315E-37    8.15480058E-02    8.15480058E-02   
                   9.00000000E+01    9.40000000E+01    2.16068102E-19   -4.47405135E-19    5.04621875E-02   -1.04490397E-01    3.10209378E-36    1.69202102E-01    1.69202102E-01   
                   9.00000000E+01    9.60000000E+01    3.54988599E-19   -8.99830357E-19    5.51586124E-02   -1.39816868E-01    1.17584985E-35    2.83889756E-01    2.83889756E-01   
                   9.00000000E+01    9.80000000E+01    3.89695809E-19   -1.49396729E-18    4.52837466E-02   -1.73603191E-01    2.99557278E-35    4.04494952E-01    4.04494952E-01   
                   9.00000000E+01    1.00000000E+02    2.51225458E-19   -2.15886968E-18    2.32682660E-02   -1.99952482E-01    5.93614302E-35    5.09219588E-01    5.09219588E-01   
                   9.00000000E+01    1.02000000E+02   -8.09952997E-20   -2.79440633E-18   -6.22306653E-03   -2.14701058E-01    9.82095410E-35    5.79752909E-01    5.79752909E-01   
                   9.00000000E+01    1.04000000E+02   -5.69471181E-19   -3.30026610E-18   -3.73009451E-02   -2.16170807E-01    1.40945089E-34    6.04708563E-01    6.04708563E-01   
                   9.00000000E+01    1.06000000E+02   -1.12475969E-18   -3.60629498E-18   -6.40593384E-02   -2.05392203E-01    1.79327737E-34    5.81691716E-01    5.81691716E-01   
                   9.00000000E+01    1.08000000E+02   -1.62596247E-18   -3.69624825E-18   -8.17247542E-02   -1.85782258E-01    2.04907303E-34    5.17658856E-01    5.17658856E-01   
                   9.00000000E+01    1.10000000E+02   -1.95053552E-18   -3.61885994E-18   -8.75199659E-02   -1.62377201E-01    2.12380914E-34    4.27584581E-01    4.27584581E-01   
                   9.00000000E+01    1.12000000E+02   -2.00617599E-18   -3.48341638E-18   -8.10921129E-02   -1.40803995E-01    2.03059125E-34    3.31773494E-01    3.31773494E-01   
                   9.00000000E+01    1.14000000E+02   -1.75725759E-18   -3.44083669E-18   -6.44571999E-02   -1.26211831E-01    1.87582127E-34    2.52384958E-01    2.52384958E-01   
                   9.00000000E+01    1.16000000E+02   -1.23983871E-18   -3.65461248E-18   -4.15147627E-02   -1.22371054E-01    1.87155888E-34    2.09835147E-01    2.09835147E-01   
                   9.00000000E+01    1.18000000E+02   -5.62123641E-19   -4.26805430E-18   -1.72653994E-02   -1.31091555E-01    2.32883379E-34    2.19698987E-01    2.19698987E-01   
                   9.00000000E+01    1.20000000E+02    1.09391357E-19   -5.37474623E-18    3.09430259E-03   -1.52032954E-01    3.63166396E-34    2.90579652E-01    2.90579652E-01   
                   9.00000000E+01    1.22000000E+02    5.74849406E-19   -6.99798397E-18    1.50239457E-02   -1.82895434E-01    6.19550112E-34    4.23190860E-01    4.23190860E-01   
                   9.00000000E+01    1.24000000E+02    6.31793425E-19   -9.08270469E-18    1.52970191E-02   -2.19910973E-01    1.04168536E-33    6.10660705E-01    6.10660705E-01   
                   9.00000000E+01    1.26000000E+02    1.05819700E-19   -1.15006589E-17    2.37861760E-03   -2.58512071E-01    1.66223368E-33    8.39862681E-01    8.39862681E-01   
                   9.00000000E+01    1.28000000E+02   -1.12420601E-18   -1.40669934E-17   -2.34993154E-02   -2.94042830E-01    2.50251911E-33    1.09344268E+00    1.09344268E+00   
                   9.00000000E+01    1.30000000E+02   -3.11011993E-18   -1.65645341E-17   -6.05316831E-02   -3.22392433E-01    3.56956098E-33    1.35215361E+00    1.35215361E+00   
                   9.00000000E+01    1.32000000E+02   -5.82929460E-18   -1.87711560E-17   -1.05729873E-01   -3.40465198E-01    4.85485357E-33    1.59712736E+00    1.59712736E+00   
                   9.00000000E+01    1.34000000E+02   -9.18994323E-18   -2.04857209E-17   -1.55415664E-01   -3.46444133E-01    6.33495644E-33    1.81178873E+00    1.81178873E+00   
                   9.00000000E+01    1.36000000E+02   -1.30448444E-17   -2.15489584E-17   -2.05728865E-01   -3.39846350E-01    7.97368353E-33    1.98322345E+00    1.98322345E+00   
                   9.00000000E+01    1.38000000E+02   -1.72104289E-17   -2.18570325E-17   -2.53074435E-01   -3.21401411E-01    9.72547529E-33    2.10292603E+00    2.10292603E+00   
                   9.00000000E+01    1.40000000E+02   -2.14878680E-17   -2.13670343E-17   -2.94459792E-01   -2.92803943E-01    1.15394295E-32    2.16695397E+00    2.16695397E+00   
                   9.00000000E+01    1.42000000E+02   -2.56831101E-17   -2.00949685E-17   -3.27700114E-01   -2.56398989E-01    1.33634543E-32    2.17558818E+00    2.17558818E+00   
                   9.00000000E+01    1.44000000E+02   -2.96235459E-17   -1.81077618E-17   -3.51493442E-01   -2.14854749E-01    1.51480750E-32    2.13264130E+00    2.13264130E+00   
                   9.00000000E+01    1.46000000E+02   -3.31699066E-17   -1.55113379E-17   -3.65385097E-01   -1.70866074E-01    1.68495465E-32    2.04456716E+00    2.04456716E+00   
                   9.00000000E+01    1.48000000E+02   -3.62229342E-17   -1.24368999E-17   -3.69651093E-01   -1.26917207E-01    1.84320689E-32    1.91951196E+00    1.91951196E+00   
                   9.00000000E+01    1.50000000E+02   -3.87251311E-17   -9.02731788E-18   -3.65133276E-01   -8.51171850E-02    1.98690436E-32    1.76642009E+00    1.76642009E+00   
                   9.00000000E+01    1.52000000E+02   -4.06584417E-17   -5.42507479E-18   -3.53056521E-01   -4.71084959E-02    2.11434252E-32    1.59427178E+00    1.59427178E+00   
                   9.00000000E+01    1.54000000E+02   -4.20390018E-17   -1.76268879E-18   -3.34852321E-01   -1.40403056E-02    2.22473108E-32    1.41149505E+00    1.41149505E+00   
                   9.00000000E+01    1.56000000E+02   -4.29101531E-17    1.84398222E-18   -3.12005569E-01    1.34078459E-02    2.31809515E-32    1.22556351E+00    1.22556351E+00   
                   9.00000000E+01    1.58000000E+02   -4.33348066E-17    5.29957618E-18   -2.85933844E-01    3.49679232E-02    2.39513889E-32    1.04276898E+00    1.04276898E+00   
                   9.00000000E+01    1.60000000E+02   -4.33880222E-17    8.53052933E-18   -2.57902093E-01    5.07061915E-02    2.45709039E-32    8.68142778E-01    8.68142778E-01   
                   9.00000000E+01    1.62000000E+02   -4.31504100E-17    1.14843505E-17   -2.28970804E-01    6.09398836E-02    2.50554353E-32    7.05492363E-01    7.05492363E-01   
                   9.00000000E+01    1.64000000E+02   -4.27027009E-17    1.41274384E-17   -1.99972799E-01    6.61574875E-02    2.54230895E-32    5.57518765E-01    5.57518765E-01   
                   9.00000000E+01    1.66000000E+02   -4.21216122E-17    1.64419945E-17   -1.71512267E-01    6.69490937E-02    2.56928168E-32    4.25982860E-01    4.25982860E-01   
                   9.00000000E+01    1.68000000E+02   -4.14769643E-17    1.84225116E-17   -1.43979487E-01    6.39502872E-02    2.58832991E-32    3.11893951E-01    3.11893951E-01   
                   9.00000000E+01    1.70000000E+02   -4.08298904E-17    2.00722148E-17   -1.17575309E-01    5.78007151E-02    2.60120574E-32    2.15700193E-01    2.15700193E-01   
                   9.00000000E+01    1.72000000E+02   -4.02319201E-17    2.13997296E-17   -9.23405448E-02    4.91167880E-02    2.60947701E-32    1.37466482E-01    1.37466482E-01   
                   9.00000000E+01    1.74000000E+02   -3.97246937E-17    2.24161513E-17   -6.81867385E-02    3.84769297E-02    2.61447755E-32    7.70306635E-02    7.70306635E-02   
                   9.00000000E+01    1.76000000E+02   -3.93400762E-17    2.31326150E-17   -4.49260327E-02    2.64172498E-02    2.61727274E-32    3.41330209E-02    3.41330209E-02   
                   9.00000000E+01    1.78000000E+02   -3.91004652E-17    2.35584077E-17   -2.22989736E-02    1.34353469E-02    2.61863680E-32    8.51689247E-03    8.51689247E-03   
                   9.00000000E+01    1.80000000E+02   -3.90191304E-17    2.36996315E-17   -7.80382608E-17    4.73992631E-17    2.61903907E-32    1.04761563E-31    1.30951954E-31   
                   9.00000000E+01    1.82000000E+02   -3.91004647E-17    2.35584082E-17    2.22989733E-02   -1.34353471E-02    2.61863677E-32    8.51689240E-03    8.51689240E-03   
                   9.00000000E+01    1.84000000E+02   -3.93400752E-17    2.31326159E-17    4.49260316E-02   -2.64172508E-02    2.61727270E-32    3.41330204E-02    3.41330204E-02   
                   9.00000000E+01    1.86000000E+02   -3.97246925E-17    2.24161525E-17    6.81867364E-02   -3.84769317E-02    2.61447749E-32    7.70306617E-02    7.70306617E-02   
                   9.00000000E+01    1.88000000E+02   -4.02319187E-17    2.13997308E-17    9.23405416E-02   -4.91167909E-02    2.60947693E-32    1.37466478E-01    1.37466478E-01   
                   9.00000000E+01    1.90000000E+02   -4.08298890E-17    2.00722159E-17    1.17575305E-01   -5.78007182E-02    2.60120565E-32    2.15700186E-01    2.15700186E-01   
                   9.00000000E+01    1.92000000E+02   -4.14769630E-17    1.84225123E-17    1.43979483E-01   -6.39502897E-02    2.58832982E-32    3.11893939E-01    3.11893939E-01   
                   9.00000000E+01    1.94000000E+02   -4.21216113E-17    1.64419946E-17    1.71512263E-01   -6.69490939E-02    2.56928158E-32    4.25982844E-01    4.25982844E-01   
                   9.00000000E+01    1.96000000E+02   -4.27027003E-17    1.41274375E-17    1.99972797E-01   -6.61574836E-02    2.54230885E-32    5.57518744E-01    5.57518744E-01   
                   9.00000000E+01    1.98000000E+02   -4.31504097E-17    1.14843486E-17    2.28970802E-01   -6.09398737E-02    2.50554344E-32    7.05492339E-01    7.05492339E-01   
                   9.00000000E+01    2.00000000E+02   -4.33880221E-17    8.53052629E-18    2.57902092E-01   -5.07061735E-02    2.45709031E-32    8.68142751E-01    8.68142751E-01   
                   9.00000000E+01    2.02000000E+02   -4.33348065E-17    5.29957201E-18    2.85933844E-01   -3.49678957E-02    2.39513883E-32    1.04276895E+00    1.04276895E+00   
                   9.00000000E+01    2.04000000E+02   -4.29101528E-17    1.84397704E-18    3.12005567E-01   -1.34078083E-02    2.31809510E-32    1.22556348E+00    1.22556348E+00   
                   9.00000000E+01    2.06000000E+02   -4.20390012E-17   -1.76269474E-18    3.34852316E-01    1.40403530E-02    2.22473104E-32    1.41149502E+00    1.41149502E+00   
                   9.00000000E+01    2.08000000E+02   -4.06584406E-17   -5.42508118E-18    3.53056512E-01    4.71085513E-02    2.11434249E-32    1.59427176E+00    1.59427176E+00   
                   9.00000000E+01    2.10000000E+02   -3.87251295E-17   -9.02732431E-18    3.65133260E-01    8.51172457E-02    1.98690434E-32    1.76642007E+00    1.76642007E+00   
                   9.00000000E+01    2.12000000E+02   -3.62229320E-17   -1.24369060E-17    3.69651071E-01    1.26917269E-01    1.84320688E-32    1.91951195E+00    1.91951195E+00   
                   9.00000000E+01    2.14000000E+02   -3.31699040E-17   -1.55113433E-17    3.65385068E-01    1.70866134E-01    1.68495464E-32    2.04456715E+00    2.04456715E+00   
                   9.00000000E+01    2.16000000E+02   -2.96235430E-17   -1.81077663E-17    3.51493408E-01    2.14854803E-01    1.51480749E-32    2.13264129E+00    2.13264129E+00   
                   9.00000000E+01    2.18000000E+02   -2.56831072E-17   -2.00949720E-17    3.27700077E-01    2.56399033E-01    1.33634542E-32    2.17558816E+00    2.17558816E+00   
                   9.00000000E+01    2.20000000E+02   -2.14878652E-17   -2.13670367E-17    2.94459755E-01    2.92803976E-01    1.15394293E-32    2.16695394E+00    2.16695394E+00   
                   9.00000000E+01    2.22000000E+02   -1.72104266E-17   -2.18570340E-17    2.53074400E-01    3.21401432E-01    9.72547508E-33    2.10292598E+00    2.10292598E+00   
                   9.00000000E+01    2.24000000E+02   -1.30448425E-17   -2.15489591E-17    2.05728835E-01    3.39846361E-01    7.97368329E-33    1.98322339E+00    1.98322339E+00   
                   9.00000000E+01    2.26000000E+02   -9.18994181E-18   -2.04857210E-17    1.55415640E-01    3.46444136E-01    6.33495619E-33    1.81178866E+00    1.81178866E+00   
                   9.00000000E+01    2.28000000E+02   -5.82929362E-18   -1.87711558E-17    1.05729855E-01    3.40465194E-01    4.85485333E-33    1.59712728E+00    1.59712728E+00   
                   9.00000000E+01    2.30000000E+02   -3.11011932E-18   -1.65645338E-17    6.05316713E-02    3.22392426E-01    3.56956078E-33    1.35215354E+00    1.35215354E+00   
                   9.00000000E+01    2.32000000E+02   -1.12420567E-18   -1.40669931E-17    2.34993084E-02    2.94042822E-01    2.50251897E-33    1.09344262E+00    1.09344262E+00   
                   9.00000000E+01    2.34000000E+02    1.05819871E-19   -1.15006587E-17   -2.37862144E-03    2.58512065E-01    1.66223361E-33    8.39862646E-01    8.39862646E-01   
                   9.00000000E+01    2.36000000E+02    6.31793529E-19   -9.08270464E-18   -1.52970216E-02    2.19910972E-01    1.04168535E-33    6.10660699E-01    6.10660699E-01   
                   9.00000000E+01    2.38000000E+02    5.74849540E-19   -6.99798415E-18   -1.50239492E-02    1.82895438E-01    6.19550146E-34    4.23190883E-01    4.23190883E-01   
                   9.00000000E+01    2.40000000E+02    1.09391607E-19   -5.37474665E-18   -3.09430968E-03    1.52032966E-01    3.63166454E-34    2.90579698E-01    2.90579698E-01   
                   9.00000000E+01    2.42000000E+02   -5.62123199E-19   -4.26805492E-18    1.72653859E-02    1.31091574E-01    2.32883440E-34    2.19699044E-01    2.19699044E-01   
                   9.00000000E+01    2.44000000E+02   -1.23983803E-18   -3.65461322E-18    4.15147399E-02    1.22371079E-01    1.87155935E-34    2.09835200E-01    2.09835200E-01   
                   9.00000000E+01    2.46000000E+02   -1.75725668E-18   -3.44083743E-18    6.44571663E-02    1.26211858E-01    1.87582151E-34    2.52384991E-01    2.52384991E-01   
                   9.00000000E+01    2.48000000E+02   -2.00617489E-18   -3.48341701E-18    8.10920684E-02    1.40804021E-01    2.03059126E-34    3.31773494E-01    3.31773494E-01   
                   9.00000000E+01    2.50000000E+02   -1.95053434E-18   -3.61886038E-18    8.75199127E-02    1.62377221E-01    2.12380895E-34    4.27584545E-01    4.27584545E-01   
                   9.00000000E+01    2.52000000E+02   -1.62596133E-18   -3.69624845E-18    8.17246967E-02    1.85782268E-01    2.04907275E-34    5.17658785E-01    5.17658785E-01   
                   9.00000000E+01    2.54000000E+02   -1.12475870E-18   -3.60629497E-18    6.40592819E-02    2.05392203E-01    1.79327708E-34    5.81691621E-01    5.81691621E-01   
                   9.00000000E+01    2.56000000E+02   -5.69470415E-19   -3.30026595E-18    3.73008950E-02    2.16170797E-01    1.40945065E-34    6.04708461E-01    6.04708461E-01   
                   9.00000000E+01    2.58000000E+02   -8.09947756E-20   -2.79440612E-18    6.22302627E-03    2.14701041E-01    9.82095252E-35    5.79752816E-01    5.79752816E-01   
                   9.00000000E+01    2.60000000E+02    2.51225775E-19   -2.15886949E-18   -2.32682953E-02    1.99952464E-01    5.93614217E-35    5.09219516E-01    5.09219516E-01   
                   9.00000000E+01    2.62000000E+02    3.89695982E-19   -1.49396715E-18   -4.52837666E-02    1.73603175E-01    2.99557244E-35    4.04494907E-01    4.04494907E-01   
                   9.00000000E+01    2.64000000E+02    3.54988689E-19   -8.99830286E-19   -5.51586264E-02    1.39816856E-01    1.17584977E-35    2.83889736E-01    2.83889736E-01   
                   9.00000000E+01    2.66000000E+02    2.16068151E-19   -4.47405108E-19   -5.04621989E-02    1.04490391E-01    3.10209374E-36    1.69202100E-01    1.69202100E-01   
                   9.00000000E+01    2.68000000E+02    6.75293969E-20   -1.58463953E-19   -3.15811696E-02    7.41081247E-02    3.72857332E-37    8.15480097E-02    8.15480097E-02   
                   9.00000000E+01    2.70000000E+02    1.94952403E-35   -6.12287738E-34   -1.73318781E-03    5.44342941E-02    4.71586155E-66    3.72730656E-02    3.72730656E-02   
                   9.00000000E+01    2.72000000E+02    7.18677182E-20    1.05461221E-19    3.36100528E-02    4.93205754E-02    2.04668956E-37    4.47633575E-02    4.47633575E-02   
                   9.00000000E+01    2.74000000E+02    2.90216166E-19    2.56425726E-19    6.77792900E-02    5.98876138E-02    1.88469893E-36    1.02799929E-01    1.02799929E-01   
                   9.00000000E+01    2.76000000E+02    6.06404399E-19    5.42280110E-19    9.42239422E-02    8.42602227E-02    8.31634884E-36    2.00784671E-01    2.00784671E-01   
                   9.00000000E+01    2.78000000E+02    9.27771041E-19    1.01472750E-18    1.07809598E-01    1.17914182E-01    2.37558565E-35    3.20777519E-01    3.20777519E-01   
                   9.00000000E+01    2.80000000E+02    1.14257229E-18    1.66874643E-18    1.05823972E-01    1.54557727E-01    5.13987942E-35    4.40913784E-01    4.40913784E-01   
                   9.00000000E+01    2.82000000E+02    1.15168427E-18    2.43849644E-18    8.84867133E-02    1.87355632E-01    9.13907090E-35    5.39499817E-01    5.39499817E-01   
                   9.00000000E+01    2.84000000E+02    8.98782600E-19    3.20965026E-18    5.88711801E-02    2.10235377E-01    1.39608167E-34    5.98972657E-01    5.98972657E-01   
                   9.00000000E+01    2.86000000E+02    3.91108782E-19    3.84535621E-18    2.22751314E-02    2.19007649E-01    1.87738190E-34    6.08973001E-01    6.08973001E-01   
                   9.00000000E+01    2.88000000E+02   -2.94629131E-19    4.21957652E-18   -1.48087632E-02    2.12085986E-01    2.24832882E-34    5.67996996E-01    5.67996996E-01   
                   9.00000000E+01    2.90000000E+02   -1.02291970E-18    4.24978571E-18   -4.58981116E-02    1.90686658E-01    2.40106188E-34    4.83403626E-01    4.83403626E-01   
                   9.00000000E+01    2.92000000E+02   -1.62433718E-18    3.92131773E-18   -6.56577162E-02    1.58504509E-01    2.26385731E-34    3.69886281E-01    3.69886281E-01   
                   9.00000000E+01    2.94000000E+02   -1.92904302E-18    3.29782015E-18   -7.07583862E-02    1.20965903E-01    1.83429109E-34    2.46797224E-01    2.46797224E-01   
                   9.00000000E+01    2.96000000E+02   -1.80153162E-18    2.51563834E-18   -6.03224897E-02    8.42336411E-02    1.20309834E-34    1.34888793E-01    1.34888793E-01   
                   9.00000000E+01    2.98000000E+02   -1.16932248E-18    1.76359525E-18   -3.59152654E-02    5.41681122E-02    5.62669709E-35    5.30814888E-02    5.30814888E-02   
                   9.00000000E+01    3.00000000E+02   -4.00113917E-20    1.25266136E-18   -1.13178368E-03    3.54334512E-02    1.97387700E-35    1.57935452E-02    1.57935452E-02   
                   9.00000000E+01    3.02000000E+02    1.49612313E-18    1.18178397E-18    3.91018455E-02    3.08864513E-02    4.56787289E-35    3.12013834E-02    3.12013834E-02   
                   9.00000000E+01    3.04000000E+02    3.27765896E-18    1.70640543E-18    7.93588690E-02    4.13155874E-02    1.71592129E-34    1.00591382E-01    1.00591382E-01   
                   9.00000000E+01    3.06000000E+02    5.09472167E-18    2.91508023E-18    1.14519269E-01    6.55252392E-02    4.32960246E-34    2.18758143E-01    2.18758143E-01   
                   9.00000000E+01    3.08000000E+02    6.71807291E-18    4.81753056E-18    1.40428101E-01    1.00701001E-01    8.58799644E-34    3.75241164E-01    3.75241164E-01   
                   9.00000000E+01    3.10000000E+02    7.92924519E-18    7.34503777E-18    1.54325418E-01    1.42955098E-01    1.46803495E-33    5.56093247E-01    5.56093247E-01   
                   9.00000000E+01    3.12000000E+02    8.54687665E-18    1.03618108E-17    1.55020503E-01    1.87939197E-01    2.26717714E-33    7.45845489E-01    7.45845489E-01   
                   9.00000000E+01    3.14000000E+02    8.44571587E-18    1.36843224E-17    1.42829668E-01    2.31422328E-01    3.24954777E-33    9.29366144E-01    9.29366144E-01   
                   9.00000000E+01    3.16000000E+02    7.56649122E-18    1.71047681E-17    1.19330335E-01    2.69757493E-01    4.39602909E-33    1.09338525E+00    1.09338525E+00   
                   9.00000000E+01    3.18000000E+02    5.91656603E-18    2.04147861E-17    8.70014112E-02    3.00193591E-01    5.67709979E-33    1.22755141E+00    1.22755141E+00   
                   9.00000000E+01    3.20000000E+02    3.56271229E-18    2.34262084E-17    4.88217594E-02    3.21021911E-01    7.05576776E-33    1.32498092E+00    1.32498092E+00   
                   9.00000000E+01    3.22000000E+02    6.18245273E-19    2.59866476E-17    7.88841560E-03    3.31573059E-01    8.49094684E-33    1.38233746E+00    1.38233746E+00   