##File Type: Far field
##File Format: 5
##Source: RWG_wire_XY_rad_theta450.38
##Date: 2020-09-16 10:50:29
** File exported by POSTFEKO version 2018-319328 (x64)

#Configuration Name: StandardConfiguration1
#Request Name: FarField1
#Frequency: 3.00000000E+08
#Coordinate System: Spherical
#No. of Theta Samples: 1
#No. of Phi Samples: 181
#Result Type: RCS
#Incident Wave Direction: (4.50000000E+01, 0.00000000E+00)
#No. of Header Lines: 1
#                 "Theta"           "Phi"             "Re(Etheta)"      "Im(Etheta)"      "Re(Ephi)"        "Im(Ephi)"        "RCS(Theta)"      "RCS(Phi)"        "RCS(Total)"      
                   9.00000000E+01    0.00000000E+00   -3.72755735E-01   -3.03181435E-01   -7.62227735E-06   -5.06654213E-05    2.90114546E+00    3.29877787E-08    2.90114549E+00   
                   9.00000000E+01    2.00000000E+00   -3.74062270E-01   -3.01059644E-01    8.47206147E-03    1.20064613E-02    2.89729602E+00    2.71346820E-03    2.90000949E+00   
                   9.00000000E+01    4.00000000E+00   -3.77877417E-01   -2.94615307E-01    1.71098799E-02    2.37072627E-02    2.88510701E+00    1.07415111E-02    2.89584852E+00   
                   9.00000000E+01    6.00000000E+00   -3.83903937E-01   -2.83716532E-01    2.60378914E-02    3.46858644E-02    2.86359065E+00    2.36383607E-02    2.88722901E+00   
                   9.00000000E+01    8.00000000E+00   -3.91640883E-01   -2.68170418E-01    3.53369621E-02    4.45625436E-02    2.83117759E+00    4.06461919E-02    2.87182379E+00   
                   9.00000000E+01    1.00000000E+01   -4.00378795E-01   -2.47763151E-01    4.50106692E-02    5.29439163E-02    2.78583567E+00    6.06832377E-02    2.84651890E+00   
                   9.00000000E+01    1.20000000E+01   -4.09198891E-01   -2.22315255E-01    5.49597124E-02    5.94314174E-02    2.72524122E+00    8.23431963E-02    2.80758441E+00   
                   9.00000000E+01    1.40000000E+01   -4.16981715E-01   -1.91750204E-01    6.49587079E-02    6.36403242E-02    2.64700407E+00    1.03920424E-01    2.75092450E+00   
                   9.00000000E+01    1.60000000E+01   -4.22431513E-01   -1.56172989E-01    7.46384877E-02    6.52308165E-02    2.54894233E+00    1.23476696E-01    2.67241902E+00   
                   9.00000000E+01    1.80000000E+01   -4.24122684E-01   -1.15953014E-01    8.34782727E-02    6.39512745E-02    2.42939552E+00    1.38963796E-01    2.56835931E+00   
                   9.00000000E+01    2.00000000E+01   -4.20573624E-01   -7.18030685E-02    9.08130531E-02    5.96921021E-02    2.28755514E+00    1.48410818E-01    2.43596596E+00   
                   9.00000000E+01    2.20000000E+01   -4.10350987E-01   -2.48434364E-02    9.58618285E-02    5.25458112E-02    2.12378108E+00    1.50175071E-01    2.27395615E+00   
                   9.00000000E+01    2.40000000E+01   -3.92203558E-01    2.33620268E-02    9.77816260E-02    4.28660825E-02    1.93986328E+00    1.43240884E-01    2.08310417E+00   
                   9.00000000E+01    2.60000000E+01   -3.65219696E-01    7.08120036E-02    9.57500386E-02    3.13154239E-02    1.73918276E+00    1.27532648E-01    1.86671541E+00   
                   9.00000000E+01    2.80000000E+01   -3.28995962E-01    1.15129202E-01    8.90751559E-02    1.88885018E-02    1.52672702E+00    1.04189775E-01    1.63091679E+00   
                   9.00000000E+01    3.00000000E+01   -2.83797971E-01    1.53686732E-01    7.73262199E-02    6.89709450E-03    1.30892447E+00    7.57364375E-02    1.38466091E+00   
                   9.00000000E+01    3.20000000E+01   -2.30688808E-01    1.83802087E-01    6.04715915E-02   -3.09613959E-03    1.09328094E+00    4.60733344E-02    1.13935428E+00   
                   9.00000000E+01    3.40000000E+01   -1.71597039E-01    2.02991648E-01    3.90036376E-02   -9.40342039E-03    8.87828570E-01    2.02281880E-02    9.08056758E-01   
                   9.00000000E+01    3.60000000E+01   -1.09297072E-01    2.09266618E-01    1.40244912E-02   -1.03973200E-02    7.00428981E-01    3.83011185E-03    7.04259093E-01   
                   9.00000000E+01    3.80000000E+01   -4.72805986E-02    2.01438804E-01   -1.27357927E-02   -4.74457764E-03    5.38004612E-01    2.32115233E-03    5.40325765E-01   
                   9.00000000E+01    4.00000000E+01    1.04903060E-02    1.79394007E-01   -3.89943873E-02    8.33681969E-03    4.05796458E-01    1.99813436E-02    4.25777802E-01   
                   9.00000000E+01    4.20000000E+01    5.99406814E-02    1.44284861E-01   -6.21003920E-02    2.88358152E-02    3.06757753E-01    5.89106795E-02    3.65668432E-01   
                   9.00000000E+01    4.40000000E+01    9.73225607E-02    9.85963961E-02   -7.93288290E-02    5.57701001E-02    2.41185473E-01    1.18166197E-01    3.59351670E-01   
                   9.00000000E+01    4.60000000E+01    1.19688529E-01    4.60481846E-02   -8.82615110E-02    8.71224900E-02    2.06663756E-01    1.93276090E-01    3.99939847E-01   
                   9.00000000E+01    4.80000000E+01    1.25334105E-01   -8.68311995E-03   -8.72078718E-02    1.19934759E-01    1.98348028E-01    2.76328952E-01    4.74676980E-01   
                   9.00000000E+01    5.00000000E+01    1.14136693E-01   -6.04097176E-02   -7.55972863E-02    1.50581660E-01    2.09563315E-01    3.56756573E-01    5.66319887E-01   
                   9.00000000E+01    5.20000000E+01    8.77236161E-02   -1.04005341E-01   -5.42619880E-02    1.75216605E-01    2.32635485E-01    4.22798329E-01    6.55433814E-01   
                   9.00000000E+01    5.40000000E+01    4.94201426E-02   -1.35034850E-01   -2.55322473E-02    1.90342555E-01    2.59831843E-01    4.63475193E-01    7.23307036E-01   
                   9.00000000E+01    5.60000000E+01    3.95879652E-03   -1.50351617E-01    6.91342816E-03    1.93424580E-01    2.84267398E-01    4.70747098E-01    7.55014495E-01   
                   9.00000000E+01    5.80000000E+01   -4.30308293E-02   -1.48568334E-01    3.84610546E-02    1.83433737E-01    3.00640389E-01    4.41421269E-01    7.42061658E-01   
                   9.00000000E+01    6.00000000E+01   -8.56940038E-02   -1.30318466E-01    6.42028403E-02    1.61204560E-01    3.05694117E-01    3.78359784E-01    6.84053901E-01   
                   9.00000000E+01    6.20000000E+01   -1.18695362E-01   -9.82532468E-02    7.97190149E-02    1.29506702E-01    2.98354408E-01    2.90623799E-01    5.88978207E-01   
                   9.00000000E+01    6.40000000E+01   -1.37929242E-01   -5.67583749E-02    8.18668298E-02    9.27757252E-02    2.79551341E-01    1.92385014E-01    4.71936355E-01   
                   9.00000000E+01    6.60000000E+01   -1.41089337E-01   -1.14183422E-02    6.94228736E-02    5.65125114E-02    2.51787085E-01    1.00696833E-01    3.52483917E-01   
                   9.00000000E+01    6.80000000E+01   -1.28009264E-01    3.17036986E-02    4.34363491E-02    2.64322616E-02    2.18547985E-01    3.24888543E-02    2.51036840E-01   
                   9.00000000E+01    7.00000000E+01   -1.00718051E-01    6.68734606E-02    7.19654383E-03    7.50602008E-03    1.83672404E-01    1.35880895E-03    1.85031213E-01   
                   9.00000000E+01    7.20000000E+01   -6.31949849E-02    8.94694673E-02   -3.42097907E-02    3.07340293E-03    1.50776237E-01    1.48252459E-02    1.65601483E-01   
                   9.00000000E+01    7.40000000E+01   -2.08497612E-02    9.66346873E-02   -7.46912672E-02    1.42034412E-02    1.22810830E-01    7.26401960E-02    1.95451026E-01   
                   9.00000000E+01    7.60000000E+01    2.02093481E-02    8.77034975E-02   -1.08158928E-01    3.94386402E-02    1.01791639E-01    1.66551660E-01    2.68343299E-01   
                   9.00000000E+01    7.80000000E+01    5.40282420E-02    6.43384796E-02   -1.29562571E-01    7.49835239E-02    8.86996124E-02    2.81599656E-01    3.70299269E-01   
                   9.00000000E+01    8.00000000E+01    7.56712026E-02    3.03453594E-02   -1.35762162E-01    1.15309936E-01    8.35283104E-02    3.98702615E-01    4.82230925E-01   
                   9.00000000E+01    8.20000000E+01    8.19792103E-02   -8.82743264E-03   -1.26073287E-01    1.54068447E-01    8.54326527E-02    4.98024874E-01    5.83457526E-01   
                   9.00000000E+01    8.40000000E+01    7.21084604E-02   -4.68572589E-02   -1.02392442E-01    1.85137951E-01    9.29312358E-02    5.62474181E-01    6.55405417E-01   
                   9.00000000E+01    8.60000000E+01    4.77520019E-02   -7.74950890E-02   -6.88913606E-02    2.03626211E-01    1.04121711E-01    5.80687629E-01    6.84809340E-01   
                   9.00000000E+01    8.80000000E+01    1.29801449E-02   -9.55660464E-02   -3.13490501E-02    2.06654474E-01    1.16884254E-01    5.49010086E-01    6.65894340E-01   
                   9.00000000E+01    9.00000000E+01   -2.63149313E-02   -9.78688993E-02    3.75186871E-03    1.93810518E-01    1.29066642E-01    4.72201399E-01    6.01268042E-01   
                   9.00000000E+01    9.20000000E+01   -6.33209364E-02   -8.38134258E-02    3.02114953E-02    1.67221014E-01    1.38660240E-01    3.62861516E-01    5.01521756E-01   
                   9.00000000E+01    9.40000000E+01   -9.14345903E-02   -5.56559183E-02    4.30338082E-02    1.31258721E-01    1.43983785E-01    2.39775907E-01    3.83759692E-01   
                   9.00000000E+01    9.60000000E+01   -1.05438323E-01   -1.82472782E-02    3.91635102E-02    9.19496356E-02    1.43887495E-01    1.25519394E-01    2.69406889E-01   
                   9.00000000E+01    9.80000000E+01   -1.02509886E-01    2.17087417E-02    1.79593545E-02    5.61739488E-02    1.37973047E-01    4.37064771E-02    1.81679524E-01   
                   9.00000000E+01    1.00000000E+02   -8.28561012E-02    5.67911759E-02   -1.86355503E-02    3.07642753E-02    1.26799344E-01    1.62574199E-02    1.43056763E-01   
                   9.00000000E+01    1.02000000E+02   -4.98154001E-02    8.02031824E-02   -6.62332567E-02    2.16017802E-02    1.12018193E-01    6.09906436E-02    1.73008836E-01   
                   9.00000000E+01    1.04000000E+02   -9.36955712E-03    8.70691222E-02   -1.18432237E-01    3.28029590E-02    9.63692423E-02    1.89780206E-01    2.86149449E-01   
                   9.00000000E+01    1.06000000E+02    3.08751680E-02    7.54258962E-02   -1.67501626E-01    6.60813830E-02    8.34701290E-02    4.07446269E-01    4.90916398E-01   
                   9.00000000E+01    1.08000000E+02    6.30605506E-02    4.66943101E-02   -2.05258571E-01    1.20359360E-01    7.73710388E-02    7.11475939E-01    7.88846978E-01   
                   9.00000000E+01    1.10000000E+02    8.05414361E-02    5.51564530E-03   -2.24055207E-01    1.91689935E-01    8.18993761E-02    1.09259273E+00    1.17449211E+00   
                   9.00000000E+01    1.12000000E+02    7.91532121E-02   -4.10310485E-02   -2.17768196E-01    2.73524791E-01    9.98872895E-02    1.53609805E+00    1.63598534E+00   
                   9.00000000E+01    1.14000000E+02    5.80273602E-02   -8.46847161E-02   -1.82667107E-01    3.57325807E-01    1.32432904E-01    2.02380147E+00    2.15623438E+00   
                   9.00000000E+01    1.16000000E+02    1.97937945E-02   -1.17485385E-01   -1.18036686E-01    4.33469951E-01    1.78374731E-01    2.53625622E+00    2.71463095E+00   
                   9.00000000E+01    1.18000000E+02   -2.98630623E-02   -1.33194307E-01   -2.64485917E-02    4.92347041E-01    2.34143227E-01    3.05494924E+00    3.28909247E+00   
                   9.00000000E+01    1.20000000E+02   -8.31949062E-02   -1.28380783E-01    8.63783262E-02    5.25509237E-01    2.94090996E-01    3.56408878E+00    3.85817978E+00   
                   9.00000000E+01    1.22000000E+02   -1.31721283E-01   -1.02982766E-01    2.12129533E-01    5.26711546E-01    3.51304783E-01    4.05169937E+00    4.40300416E+00   
                   9.00000000E+01    1.24000000E+02   -1.67640165E-01   -6.02625632E-02    3.40792113E-01    4.92691278E-01    3.98791278E-01    4.50986885E+00    4.90866012E+00   
                   9.00000000E+01    1.26000000E+02   -1.85057207E-01   -6.20176482E-03    4.61774086E-01    4.23571945E-01    4.30833387E-01    4.93416656E+00    5.36499995E+00   
                   9.00000000E+01    1.28000000E+02   -1.80828819E-01    5.15170247E-02    5.65085494E-01    3.22836679E-01    4.44259724E-01    5.32242516E+00    5.76668488E+00   
                   9.00000000E+01    1.30000000E+02   -1.54905507E-01    1.04730516E-01    6.42413798E-01    1.96885693E-01    4.39373058E-01    5.67320695E+00    6.11258000E+00   
                   9.00000000E+01    1.32000000E+02   -1.10165415E-01    1.45991327E-01    6.87949082E-01    5.42571669E-02    4.20343667E-01    5.98432911E+00    6.40467277E+00   
                   9.00000000E+01    1.34000000E+02   -5.18205820E-02    1.69546058E-01    6.98861709E-01   -9.53615267E-02    3.94976591E-01    6.25178835E+00    6.64676494E+00   
                   9.00000000E+01    1.36000000E+02    1.34575294E-02    1.71963820E-01    6.75395587E-01   -2.42183205E-01    3.73882959E-01    6.46931717E+00    6.84320013E+00   
                   9.00000000E+01    1.38000000E+02    7.85195853E-02    1.52362785E-01    6.20601195E-01   -3.77286981E-01    3.69196745E-01    6.62865129E+00    6.99784803E+00   
                   9.00000000E+01    1.40000000E+02    1.36662377E-01    1.12257605E-01    5.39782717E-01   -4.93385642E-01    3.93055655E-01    6.72042933E+00    7.11348498E+00   
                   9.00000000E+01    1.42000000E+02    1.82367424E-01    5.51086190E-02    4.39765118E-01   -5.85322322E-01    4.56094377E-01    6.73551911E+00    7.19161349E+00   
                   9.00000000E+01    1.44000000E+02    2.11778610E-01   -1.43131864E-02    3.28097089E-01   -6.50273019E-01    5.66178416E-01    6.66649353E+00    7.23267194E+00   
                   9.00000000E+01    1.46000000E+02    2.22898060E-01   -9.06243725E-02    2.12296139E-01   -6.87675782E-01    7.27546640E-01    6.50897323E+00    7.23651987E+00   
                   9.00000000E+01    1.48000000E+02    2.15526324E-01   -1.68483915E-01    9.92179905E-02   -6.98940641E-01    9.40447397E-01    6.26260447E+00    7.20305186E+00   
                   9.00000000E+01    1.50000000E+02    1.91005198E-01   -2.43126961E-01   -5.39933833E-03   -6.87013115E-01    1.20126592E+00    5.93153017E+00    7.13279609E+00   
                   9.00000000E+01    1.52000000E+02    1.51837172E-01   -3.10734163E-01   -9.71990001E-02   -6.55868484E-01    1.50306669E+00    5.52431618E+00    7.02738287E+00   
                   9.00000000E+01    1.54000000E+02    1.01255847E-01   -3.68626223E-01   -1.73286670E-01   -6.10006282E-01    1.83642476E+00    5.05338918E+00    6.88981394E+00   
                   9.00000000E+01    1.56000000E+02    4.28107134E-02   -4.15299517E-01   -2.32160330E-01   -5.53998906E-01    2.19039940E+00    4.53411248E+00    6.72451188E+00   
                   9.00000000E+01    1.58000000E+02   -1.99878154E-02   -4.50335765E-01   -2.73530258E-01   -4.92128938E-01    2.55350930E+00    3.98366129E+00    6.53717060E+00   
                   9.00000000E+01    1.60000000E+02   -8.39367008E-02   -4.74226436E-01   -2.98073819E-01   -4.28130800E-01    2.91459478E+00    3.41986216E+00    6.33445693E+00   
                   9.00000000E+01    1.62000000E+02   -1.46313257E-01   -4.88152358E-01   -3.07166018E-01   -3.65036245E-01    3.26349014E+00    2.86013640E+00    6.12362654E+00   
                   9.00000000E+01    1.64000000E+02   -2.04958137E-01   -4.93753215E-01   -3.02618878E-01   -3.05111567E-01    3.59146967E+00    2.32064742E+00    5.91211709E+00   
                   9.00000000E+01    1.66000000E+02   -2.58282840E-01   -4.92912831E-01   -2.86453038E-01   -2.49867599E-01    3.89146674E+00    1.81570433E+00    5.70717108E+00   
                   9.00000000E+01    1.68000000E+02   -3.05220846E-01   -4.87576438E-01   -2.60715272E-01   -2.00121093E-01    4.15809326E+00    1.35743072E+00    5.51552398E+00   
                   9.00000000E+01    1.70000000E+02   -3.45142366E-01   -4.79607339E-01   -2.27347280E-01   -1.56087028E-01    4.38750372E+00    9.55671806E-01    5.34317553E+00   
                   9.00000000E+01    1.72000000E+02   -3.77750893E-01   -4.70683286E-01   -1.88104757E-01   -1.17484536E-01    4.57715589E+00    6.18089704E-01    5.19524560E+00   
                   9.00000000E+01    1.74000000E+02   -4.02976571E-01   -4.62228046E-01   -1.44521519E-01   -8.36435244E-02    4.72551936E+00    3.50384450E-01    5.07590381E+00   
                   9.00000000E+01    1.76000000E+02   -4.20877680E-01   -4.55370869E-01   -9.79111840E-02   -5.36037050E-02    4.83177766E+00    1.56576439E-01    4.98835410E+00   
                   9.00000000E+01    1.78000000E+02   -4.31558072E-01   -4.50925707E-01   -4.93980957E-02   -2.62020656E-02    4.89556096E+00    3.92915236E-02    4.93485249E+00   
                   9.00000000E+01    1.80000000E+02   -4.35105509E-01   -4.49382565E-01    3.06969329E-05   -1.48470997E-04    4.91673694E+00    2.88849824E-07    4.91673723E+00   
                   9.00000000E+01    1.82000000E+02   -4.31553746E-01   -4.50904904E-01    4.94599775E-02    2.59081735E-02    4.89527828E+00    3.91759472E-02    4.93445423E+00   
                   9.00000000E+01    1.84000000E+02   -4.20869764E-01   -4.55329241E-01    9.79743602E-02    5.33189223E-02    4.83121754E+00    1.56349309E-01    4.98756685E+00   
                   9.00000000E+01    1.86000000E+02   -4.02966540E-01   -4.62165613E-01    1.44586297E-01    8.33737770E-02    4.72469255E+00    3.50053643E-01    5.07474619E+00   
                   9.00000000E+01    1.88000000E+02   -3.77740962E-01   -4.70600223E-01    1.88170638E-01    1.17235485E-01    4.57607910E+00    6.17666621E-01    5.19374572E+00   
                   9.00000000E+01    1.90000000E+02   -3.45135467E-01   -4.79504150E-01    2.27412702E-01    1.55863878E-01    4.38620018E+00    9.55170902E-01    5.34137108E+00   
                   9.00000000E+01    1.92000000E+02   -3.05220571E-01   -4.87454181E-01    2.60777418E-01    1.99928330E-01    4.15659318E+00    1.35686893E+00    5.51346211E+00   
                   9.00000000E+01    1.94000000E+02   -2.58293325E-01   -4.92773381E-01    2.86507751E-01    2.49708654E-01    3.88980751E+00    1.81510044E+00    5.70490794E+00   
                   9.00000000E+01    1.96000000E+02   -2.04983853E-01   -4.93599544E-01    3.02660708E-01    3.04988417E-01    3.58969547E+00    2.32002142E+00    5.90971689E+00   
                   9.00000000E+01    1.98000000E+02   -1.46358691E-01   -4.87988800E-01    3.07188437E-01    3.64948980E-01    3.26165095E+00    2.85950897E+00    6.12115992E+00   
                   9.00000000E+01    2.00000000E+02   -8.40059144E-02   -4.74058896E-01    2.98069635E-01    4.28077214E-01    2.91274435E+00    3.41925426E+00    6.33199861E+00   
                   9.00000000E+01    2.02000000E+02   -2.00838694E-02   -4.50171799E-01    2.73492228E-01    4.92104203E-01    2.55170222E+00    3.98309395E+00    6.53479617E+00   
                   9.00000000E+01    2.04000000E+02    4.26864311E-02   -4.15148241E-01    2.32081970E-01    5.53995420E-01    2.18868720E+00    4.53360680E+00    6.72229400E+00   
                   9.00000000E+01    2.06000000E+02    1.01104346E-01   -3.68497960E-01    1.73163199E-01    6.10013772E-01    1.83485141E+00    5.05296648E+00    6.88781788E+00   
                   9.00000000E+01    2.08000000E+02    1.51662545E-01   -3.10639795E-01    9.70283478E-02    6.55874455E-01    1.50166382E+00    5.52399809E+00    7.02566191E+00   
                   9.00000000E+01    2.10000000E+02    1.90815144E-01   -2.43076953E-01    5.18306850E-03    6.87003689E-01    1.20004849E+00    5.93133865E+00    7.13138713E+00   
                   9.00000000E+01    2.12000000E+02    2.15332366E-01   -1.68487039E-01   -9.94739940E-02    6.98901789E-01    9.39410473E-01    6.26256120E+00    7.20197167E+00   
                   9.00000000E+01    2.14000000E+02    2.22715303E-01   -9.06862237E-02   -2.12581408E-01    6.87594897E-01    7.26664172E-01    6.50909846E+00    7.23576263E+00   
                   9.00000000E+01    2.16000000E+02    2.11624908E-01   -1.44346612E-02   -3.28396892E-01    6.50140663E-01    5.65404505E-01    6.66680394E+00    7.23220844E+00   
                   9.00000000E+01    2.18000000E+02    1.82261886E-01    5.49326512E-02   -4.40061482E-01    5.85133939E-01    4.55367464E-01    6.73602496E+00    7.19139243E+00   
                   9.00000000E+01    2.20000000E+02    1.36623246E-01    1.12039140E-01   -5.40056170E-01    4.93142924E-01    3.92305506E-01    6.72113100E+00    7.11343651E+00   
                   9.00000000E+01    2.22000000E+02    7.85616410E-02    1.52120735E-01   -6.20833122E-01    3.76998585E-01    3.68353616E-01    6.62953583E+00    6.99788944E+00   
                   9.00000000E+01    2.24000000E+02    1.35893240E-02    1.71723024E-01   -6.75570943E-01    2.41864521E-01    3.72887780E-01    6.47035569E+00    6.84324347E+00   
                   9.00000000E+01    2.26000000E+02   -5.15992217E-02    1.69335122E-01   -6.98971699E-01    9.50333182E-02    3.93790638E-01    6.25293513E+00    6.64672576E+00   
                   9.00000000E+01    2.28000000E+02   -1.09865104E-01    1.45839358E-01   -6.87993307E-01   -5.45712629E-02    4.18956002E-01    5.98552333E+00    6.40447934E+00   
                   9.00000000E+01    2.30000000E+02   -1.54547724E-01    1.04663036E-01   -6.42401374E-01   -1.97162595E-01    4.37804185E-01    5.67437750E+00    6.11218168E+00   
                   9.00000000E+01    2.32000000E+02   -1.80444639E-01    5.15516207E-02   -5.65034706E-01   -3.23057774E-01    4.42560395E-01    5.32349842E+00    5.76605881E+00   
                   9.00000000E+01    2.34000000E+02   -1.84684192E-01   -6.05933564E-03   -4.61710373E-01   -4.23726837E-01    4.29078300E-01    4.93507638E+00    5.36415468E+00   
                   9.00000000E+01    2.36000000E+02   -1.67317591E-01   -6.00209807E-02   -3.40744451E-01   -4.92780631E-01    3.97068337E-01    4.51056718E+00    4.90763552E+00   
                   9.00000000E+01    2.38000000E+02   -1.31484260E-01   -1.02665731E-01   -2.12125651E-01   -5.26748312E-01    3.49701523E-01    4.05216539E+00    4.40186691E+00   
                   9.00000000E+01    2.40000000E+02   -8.30683116E-02   -1.28025092E-01   -8.64394865E-02   -5.25517772E-01    2.92680428E-01    3.56433433E+00    3.85701476E+00   
                   9.00000000E+01    2.42000000E+02   -2.98563816E-02   -1.32845358E-01    2.63122739E-02   -4.92359968E-01    2.32971621E-01    3.05501883E+00    3.28799045E+00   
                   9.00000000E+01    2.44000000E+02    1.96895624E-02   -1.17190582E-01    1.17829395E-01   -4.33523084E-01    1.77453631E-01    2.53622070E+00    2.71367433E+00   
                   9.00000000E+01    2.46000000E+02    5.78398652E-02   -8.44857434E-02    1.82408128E-01   -3.57451893E-01    1.31736918E-01    2.02374589E+00    2.15548281E+00   
                   9.00000000E+01    2.48000000E+02    7.89255754E-02   -4.09563794E-02    2.17489949E-01   -2.73747193E-01    9.93581639E-02    1.53610565E+00    1.63546382E+00   
                   9.00000000E+01    2.50000000E+02    8.03259815E-02    5.45652755E-03    2.23798617E-01   -1.92017493E-01    8.14556792E-02    1.09272809E+00    1.17418377E+00   
                   9.00000000E+01    2.52000000E+02    6.29103725E-02    4.65136708E-02    2.05066471E-01   -1.20783573E-01    7.69217270E-02    7.11770904E-01    7.88692631E-01   
                   9.00000000E+01    2.54000000E+02    3.08350130E-02    7.51566964E-02    1.67411355E-01   -6.65766257E-02    8.29295895E-02    4.07891936E-01    4.90821525E-01   
                   9.00000000E+01    2.56000000E+02   -9.27134142E-03    8.67600954E-02    1.18468854E-01   -3.33298882E-02    9.56711966E-02    1.90327119E-01    2.85998315E-01   
                   9.00000000E+01    2.58000000E+02   -4.95721931E-02    7.99107966E-02    6.64047371E-02   -2.21133995E-02    1.11126146E-01    6.15575169E-02    1.72683663E-01   
                   9.00000000E+01    2.60000000E+02   -8.24844393E-02    5.65699452E-02    1.89309817E-02   -3.12135505E-02    1.25711979E-01    1.67467975E-02    1.42458776E-01   
                   9.00000000E+01    2.62000000E+02   -1.02046591E-01    2.16017668E-02   -1.75681726E-02   -5.65215064E-02    1.36723910E-01    4.40240348E-02    1.80747945E-01   
                   9.00000000E+01    2.64000000E+02   -1.04933826E-01   -1.82156465E-02   -3.87173597E-02   -9.21700376E-02    1.42539307E-01    1.25592703E-01    2.68132011E-01   
                   9.00000000E+01    2.66000000E+02   -9.09437729E-02   -5.54838117E-02   -4.25791897E-02   -1.31344104E-01    1.42618545E-01    2.39568568E-01    3.82187113E-01   
                   9.00000000E+01    2.68000000E+02   -6.28933339E-02   -8.35208603E-02   -2.97930014E-02   -1.67181446E-01    1.37366837E-01    3.62379680E-01    4.99746517E-01   
                   9.00000000E+01    2.70000000E+02   -2.59862961E-02   -9.74930443E-02   -3.40530789E-03   -1.93671130E-01    1.27927931E-01    4.71491515E-01    5.99419446E-01   
                   9.00000000E+01    2.72000000E+02    1.31932635E-02   -9.51534334E-02    3.16014759E-02   -2.06450090E-01    1.15965460E-01    5.48148766E-01    6.64114226E-01   
                   9.00000000E+01    2.74000000E+02    4.78536743E-02   -7.70924567E-02    6.90430164E-02   -2.03394689E-01    1.03461707E-01    5.79766319E-01    6.83228025E-01   
                   9.00000000E+01    2.76000000E+02    7.21206943E-02   -4.65029628E-02    1.02451193E-01   -1.84913639E-01    9.25377491E-02    5.61582320E-01    6.54120069E-01   
                   9.00000000E+01    2.78000000E+02    8.19359455E-02   -8.54513913E-03    1.26057883E-01   -1.53877029E-01    8.52819075E-02    4.97235325E-01    5.82517233E-01   
                   9.00000000E+01    2.80000000E+02    7.56104265E-02    3.05495491E-02    1.35697039E-01   -1.15165553E-01    8.35690229E-02    3.98062297E-01    4.81631320E-01   
                   9.00000000E+01    2.82000000E+02    5.39839747E-02    6.44751274E-02    1.29472282E-01   -7.48885038E-02    8.88607220E-02    2.81126798E-01    3.69987520E-01   
                   9.00000000E+01    2.84000000E+02    2.02051564E-02    8.77956234E-02    1.08063358E-01   -3.93855777E-02    1.01992683E-01    1.66239426E-01    2.68232109E-01   
                   9.00000000E+01    2.86000000E+02   -2.08045118E-02    9.67113940E-02    7.46025148E-02   -1.41789295E-02    1.22973516E-01    7.24649470E-02    1.95438463E-01   
                   9.00000000E+01    2.88000000E+02   -6.31056030E-02    8.95588913E-02    3.41311323E-02   -3.06244225E-03    1.50835556E-01    1.47568492E-02    1.65592405E-01   
                   9.00000000E+01    2.90000000E+02   -1.00601910E-01    6.69965530E-02   -7.26965504E-03   -7.49611068E-03    1.83585657E-01    1.37023152E-03    1.84955888E-01   
                   9.00000000E+01    2.92000000E+02   -1.27890925E-01    3.18700265E-02   -4.35137260E-02   -2.64163808E-02    2.18300318E-01    3.25628532E-02    2.50863172E-01   
                   9.00000000E+01    2.94000000E+02   -1.40994601E-01   -1.12121135E-02   -6.95162066E-02   -5.64905054E-02    2.51392618E-01    1.00828539E-01    3.52221156E-01   
                   9.00000000E+01    2.96000000E+02   -1.37879413E-01   -5.65272735E-02   -8.19862689E-02   -9.27540339E-02    2.79049645E-01    1.92580372E-01    4.71630018E-01   
                   9.00000000E+01    2.98000000E+02   -1.18702844E-01   -9.80205641E-02   -7.98704195E-02   -1.29496683E-01    2.97802830E-01    2.90894826E-01    5.88697656E-01   
                   9.00000000E+01    3.00000000E+02   -8.57599290E-02   -1.30110988E-01   -6.43861647E-02   -1.61219920E-01    3.05157151E-01    3.78718251E-01    6.83875402E-01   
                   9.00000000E+01    3.02000000E+02   -4.31449609E-02   -1.48411271E-01   -3.86700466E-02   -1.83487680E-01    3.00177832E-01    4.41872562E-01    7.42050394E-01   
                   9.00000000E+01    3.04000000E+02    3.81610990E-03   -1.50264201E-01   -7.13654063E-03   -1.93527255E-01    2.83923230E-01    4.71285752E-01    7.55208982E-01   
                   9.00000000E+01    3.06000000E+02    4.92745464E-02   -1.35027302E-01    2.53100469E-02   -1.90499229E-01    2.59625656E-01    4.64083036E-01    7.23708692E-01   
                   9.00000000E+01    3.08000000E+02    8.76026273E-02   -1.04077584E-01    5.40569428E-02   -1.75426809E-01    2.32557826E-01    4.23445454E-01    6.56003279E-01   
                   9.00000000E+01    3.10000000E+02    1.14065655E-01   -6.05518234E-02    7.54245582E-02   -1.50839329E-01    2.09575607E-01    3.57404761E-01    5.66980368E-01   
                   9.00000000E+01    3.12000000E+02    1.25332867E-01   -8.87719904E-03    8.70796135E-02   -1.20229204E-01    1.98386953E-01    2.76936677E-01    4.75323630E-01   
                   9.00000000E+01    3.14000000E+02    1.19769272E-01    4.58251530E-02    8.81855568E-02   -8.74399463E-02    2.06649230E-01    1.93804055E-01    4.00453284E-01   
                   9.00000000E+01    3.16000000E+02    9.74889377E-02    9.83693611E-02    7.93081152E-02   -5.60955289E-02    2.41030832E-01    1.18582374E-01    3.59613206E-01   
                   9.00000000E+01    3.18000000E+02    6.01881785E-02    1.44077652E-01    6.21330793E-02   -2.91546525E-02    3.06380514E-01    5.91940560E-02    3.65574570E-01   
                   9.00000000E+01    3.20000000E+02    1.08075898E-02    1.79226848E-01    3.90745570E-02   -8.63643908E-03    4.05128064E-01    2.01239000E-02    4.25251964E-01   
                   9.00000000E+01    3.22000000E+02   -4.69097142E-02    2.01326633E-01    1.28545231E-02    4.47384131E-03    5.36997890E-01    2.32797067E-03    5.39325861E-01   