##File Type: Far field
##File Format: 5
##Source: RWG_wire_XY_rad_theta450.001
##Date: 2020-09-16 10:50:29
** File exported by POSTFEKO version 2018-319328 (x64)

#Configuration Name: StandardConfiguration1
#Request Name: FarField1
#Frequency: 3.00000000E+08
#Coordinate System: Spherical
#No. of Theta Samples: 1
#No. of Phi Samples: 181
#Result Type: RCS
#Incident Wave Direction: (4.50000000E+01, 0.00000000E+00)
#No. of Header Lines: 1
#                 "Theta"           "Phi"             "Re(Etheta)"      "Im(Etheta)"      "Re(Ephi)"        "Im(Ephi)"        "RCS(Theta)"      "RCS(Phi)"        "RCS(Total)"      
                   9.00000000E+01    0.00000000E+00   -2.96237524E-07   -1.23432160E-06   -1.25923501E-06    2.02135105E-06    2.02482744E-11    7.12705838E-11    9.15188582E-11   
                   9.00000000E+01    2.00000000E+00   -3.04457917E-07   -1.23297492E-06    1.48631579E-02   -1.27928422E-02    2.02685729E-11    4.83265261E-03    4.83265263E-03   
                   9.00000000E+01    4.00000000E+00   -3.28008517E-07   -1.22963563E-06    2.94486103E-02   -2.59173711E-02    2.03524107E-11    1.93387745E-02    1.93387745E-02   
                   9.00000000E+01    6.00000000E+00   -3.66828244E-07   -1.22324837E-06    4.34601851E-02   -3.96863113E-02    2.04944880E-11    4.35272813E-02    4.35272813E-02   
                   9.00000000E+01    8.00000000E+00   -4.20700730E-07   -1.21207061E-06    5.65724198E-02   -5.43833881E-02    2.06855562E-11    7.73836045E-02    7.73836045E-02   
                   9.00000000E+01    1.00000000E+01   -4.89127087E-07   -1.19370589E-06    6.84173840E-02   -7.02430044E-02    2.09126908E-11    1.20825881E-01    1.20825881E-01   
                   9.00000000E+01    1.20000000E+01   -5.71155281E-07   -1.16516969E-06    7.85770827E-02   -8.74290419E-02    2.11597419E-11    1.73644563E-01    1.73644563E-01   
                   9.00000000E+01    1.40000000E+01   -6.65176739E-07   -1.12300416E-06    8.65820404E-02   -1.06010588E-01    2.14080493E-11    2.35427114E-01    2.35427114E-01   
                   9.00000000E+01    1.60000000E+01   -7.68707407E-07   -1.06345979E-06    9.19181290E-02   -1.25935142E-01    2.16375032E-11    3.05470908E-01    3.05470908E-01   
                   9.00000000E+01    1.80000000E+01   -8.78178807E-07   -9.82760565E-07    9.40437620E-02   -1.47000802E-01    2.18279912E-11    3.82689527E-01    3.82689527E-01   
                   9.00000000E+01    2.00000000E+01   -9.88774114E-07   -8.77463814E-07    9.24193662E-02   -1.68830064E-01    2.19612028E-11    4.65520316E-01    4.65520316E-01   
                   9.00000000E+01    2.20000000E+01   -1.09435328E-06   -7.44915128E-07    8.65504040E-02   -1.90849133E-01    2.20226608E-11    5.51844171E-01    5.51844171E-01   
                   9.00000000E+01    2.40000000E+01   -1.18751780E-06   -5.83782254E-07    7.60440268E-02   -2.12277833E-01    2.20037182E-11    6.38931740E-01    6.38931740E-01   
                   9.00000000E+01    2.60000000E+01   -1.25986643E-06   -3.94629355E-07    6.06775952E-02   -2.32136157E-01    2.19031304E-11    7.23432959E-01    7.23432959E-01   
                   9.00000000E+01    2.80000000E+01   -1.30248499E-06   -1.80466620E-07    4.04747953E-02   -2.49273819E-01    2.17276989E-11    8.01428405E-01    8.01428405E-01   
                   9.00000000E+01    3.00000000E+01   -1.30669255E-06    5.28169543E-08    1.57820501E-02   -2.62428570E-01    2.14914474E-11    8.68560235E-01    8.68560235E-01   
                   9.00000000E+01    3.20000000E+01   -1.26503045E-06    2.96251792E-07   -1.26652948E-02   -2.70317016E-01    2.12128775E-11    9.20256669E-01    9.20256669E-01   
                   9.00000000E+01    3.40000000E+01   -1.17243057E-06    5.37940495E-07   -4.37003929E-02   -2.71758136E-01    2.09101068E-11    9.52055998E-01    9.52055998E-01   
                   9.00000000E+01    3.60000000E+01   -1.02743811E-06    7.63676442E-07   -7.57210269E-02   -2.65824327E-01    2.05941550E-11    9.60023552E-01    9.60023552E-01   
                   9.00000000E+01    3.80000000E+01   -8.33301026E-07    9.58097965E-07   -1.06739223E-01   -2.52008134E-01    2.02612910E-11    9.41238263E-01    9.41238263E-01   
                   9.00000000E+01    4.00000000E+01   -5.98687666E-07    1.10637224E-06   -1.34495842E-01   -2.30385431E-01    1.98861113E-11    8.94305599E-01    8.94305599E-01   
                   9.00000000E+01    4.20000000E+01   -3.37772910E-07    1.19629541E-06   -1.56644780E-01   -2.01749083E-01    1.94177223E-11    8.19833535E-01    8.19833535E-01   
                   9.00000000E+01    4.40000000E+01   -6.94613876E-08    1.22056717E-06   -1.71000819E-01   -1.67682734E-01    1.87818120E-11    7.20791680E-01    7.20791680E-01   
                   9.00000000E+01    4.60000000E+01    1.84391545E-07    1.17887174E-06   -1.75831695E-01   -1.30544348E-01    1.78912296E-11    6.02665693E-01    6.02665693E-01   
                   9.00000000E+01    4.80000000E+01    4.01739446E-07    1.07930466E-06   -1.70160280E-01   -9.33352351E-02    1.66666910E-11    4.73324751E-01    4.73324751E-01   
                   9.00000000E+01    5.00000000E+01    5.63845450E-07    9.38664694E-07   -1.54029809E-01   -5.94435599E-02    1.50672430E-11    3.42543163E-01    3.42543163E-01   
                   9.00000000E+01    5.20000000E+01    6.59042057E-07    7.81215358E-07   -1.28677475E-01   -3.22715052E-02    1.31272563E-11    2.21159862E-01    2.21159862E-01   
                   9.00000000E+01    5.40000000E+01    6.86054431E-07    6.35731354E-07   -9.65629647E-02   -1.47801293E-02    1.09933756E-11    1.19919095E-01    1.19919095E-01   
                   9.00000000E+01    5.60000000E+01    6.56072618E-07    5.30972767E-07   -6.12116280E-02   -9.01144119E-03    8.95182199E-12    4.81049398E-02    4.81049398E-02   
                   9.00000000E+01    5.80000000E+01    5.92798863E-07    4.90130285E-07   -2.68576184E-02   -1.56674959E-02    7.43474474E-12    1.21491934E-02    1.21491934E-02   
                   9.00000000E+01    6.00000000E+01    5.29940331E-07    5.25177403E-07    2.09155799E-03   -3.38349958E-02    6.99504581E-12    1.44410414E-02    1.44410414E-02   
                   9.00000000E+01    6.20000000E+01    5.06066288E-07    6.32343746E-07    2.17065884E-02   -6.09354549E-02    8.24305784E-12    5.25815355E-02    5.25815355E-02   
                   9.00000000E+01    6.40000000E+01    5.57345785E-07    7.89977952E-07    2.92039803E-02   -9.29526813E-02    1.17457802E-11    1.19293479E-01    1.19293479E-01   
                   9.00000000E+01    6.60000000E+01    7.09310585E-07    9.59819162E-07    2.35057597E-02   -1.24942780E-01    1.78992157E-11    2.03113000E-01    2.03113000E-01   
                   9.00000000E+01    6.80000000E+01    9.69288716E-07    1.09212620E-06    5.56593198E-03   -1.51773888E-01    2.67947726E-11    2.89859582E-01    2.89859583E-01   
                   9.00000000E+01    7.00000000E+01    1.32135885E-06    1.13429343E-06   -2.16346674E-02   -1.68985003E-01    3.81089110E-11    3.64726215E-01    3.64726215E-01   
                   9.00000000E+01    7.20000000E+01    1.72545803E-06    1.04167189E-06   -5.34689362E-02   -1.73609787E-01    5.10481880E-11    4.14681250E-01    4.14681250E-01   
                   9.00000000E+01    7.40000000E+01    2.12159875E-06    7.88538474E-07   -8.43891144E-02   -1.64795732E-01    6.43771920E-11    4.30764577E-01    4.30764577E-01   
                   9.00000000E+01    7.60000000E+01    2.43910185E-06    3.76750753E-07   -1.08888136E-01   -1.44070402E-01    7.65437608E-11    4.09825876E-01    4.09825876E-01   
                   9.00000000E+01    7.80000000E+01    2.60954016E-06   -1.60229605E-07   -1.22522582E-01   -1.15165489E-01    8.58958349E-11    3.55312531E-01    3.55312531E-01   
                   9.00000000E+01    8.00000000E+01    2.58100909E-06   -7.59509108E-07   -1.22790597E-01   -8.33969054E-02    9.09611963E-11    2.76869499E-01    2.76869499E-01   
                   9.00000000E+01    8.20000000E+01    2.33070392E-06   -1.33744015E-06   -1.09670453E-01   -5.46971823E-02    9.07408439E-11    1.88739222E-01    1.88739222E-01   
                   9.00000000E+01    8.40000000E+01    1.87281913E-06   -1.80361978E-06   -8.56847006E-02   -3.44816254E-02    8.49548961E-11    1.07201828E-01    1.07201828E-01   
                   9.00000000E+01    8.60000000E+01    1.25956667E-06   -2.07765678E-06   -5.54511648E-02   -2.65795508E-02    7.41813707E-11    4.75172700E-02    4.75172700E-02   
                   9.00000000E+01    8.80000000E+01    5.74510639E-07   -2.10528400E-06   -2.47944614E-02   -3.24607808E-02    5.98446158E-11    2.09665823E-02    2.09665823E-02   
                   9.00000000E+01    9.00000000E+01   -8.08739085E-08   -1.87029165E-06    4.06516750E-04   -5.09321175E-02    4.40392408E-11    3.26002548E-02    3.26002549E-02   
                   9.00000000E+01    9.20000000E+01   -6.04911603E-07   -1.39950661E-06    1.53945830E-02   -7.83793176E-02    2.92109910E-11    8.01773478E-02    8.01773479E-02   
                   9.00000000E+01    9.40000000E+01   -9.14129073E-07   -7.59497468E-07    1.74824040E-02   -1.09509879E-01    1.77496010E-11    1.54541830E-01    1.54541830E-01   
                   9.00000000E+01    9.60000000E+01   -9.58520787E-07   -4.55009295E-08    6.56938747E-03   -1.38439782E-01    1.15715216E-11    2.41384022E-01    2.41384022E-01   
                   9.00000000E+01    9.80000000E+01   -7.30501749E-07    6.35206253E-07   -1.48804702E-02   -1.59890864E-01    1.17761946E-11    3.24042928E-01    3.24042928E-01   
                   9.00000000E+01    1.00000000E+02   -2.65766155E-07    1.18205902E-06   -4.23874177E-02   -1.70243484E-01    1.84461148E-11    3.86787069E-01    3.86787069E-01   
                   9.00000000E+01    1.02000000E+02    3.63942049E-07    1.51825503E-06   -7.04038842E-02   -1.68226211E-01    3.06311838E-11    4.17916834E-01    4.17916834E-01   
                   9.00000000E+01    1.04000000E+02    1.06441052E-06    1.60277625E-06   -9.34511953E-02   -1.55110067E-01    4.65189631E-11    4.12079678E-01    4.12079679E-01   
                   9.00000000E+01    1.06000000E+02    1.73589868E-06    1.43527920E-06   -1.07202943E-01   -1.34387013E-01    6.37538553E-11    3.71365660E-01    3.71365660E-01   
                   9.00000000E+01    1.08000000E+02    2.28993359E-06    1.05337460E-06   -1.09296887E-01   -1.11023131E-01    7.98391025E-11    3.05010258E-01    3.05010258E-01   
                   9.00000000E+01    1.10000000E+02    2.66276211E-06    5.23422374E-07   -9.97278788E-02   -9.04605808E-02    9.25421841E-11    2.27812799E-01    2.27812799E-01   
                   9.00000000E+01    1.12000000E+02    2.82323435E-06   -7.28171517E-08   -8.07717013E-02   -7.75816695E-02    1.00228801E-10    1.57619775E-01    1.57619775E-01   
                   9.00000000E+01    1.14000000E+02    2.77424654E-06   -6.52752189E-07   -5.64893061E-02   -7.58384134E-02    1.02070713E-10    1.12374853E-01    1.12374853E-01   
                   9.00000000E+01    1.16000000E+02    2.54824867E-06   -1.14593226E-06   -3.19402335E-02   -8.66989143E-02    9.81022877E-11    1.07277601E-01    1.07277601E-01   
                   9.00000000E+01    1.18000000E+02    2.19841328E-06   -1.50329287E-06   -1.22777306E-02   -1.09484091E-01    8.91321407E-11    1.52524435E-01    1.52524435E-01   
                   9.00000000E+01    1.20000000E+02    1.78766307E-06   -1.70156602E-06   -1.90124489E-03   -1.41584908E-01    7.65425952E-11    2.51954487E-01    2.51954487E-01   
                   9.00000000E+01    1.22000000E+02    1.37781428E-06   -1.74283979E-06   -3.80944109E-03   -1.78979857E-01    6.20258804E-11    4.02730829E-01    4.02730829E-01   
                   9.00000000E+01    1.24000000E+02    1.02068794E-06   -1.65015732E-06   -1.92408282E-02   -2.16927930E-01    4.73101617E-11    5.95997027E-01    5.95997027E-01   
                   9.00000000E+01    1.26000000E+02    7.52344423E-07   -1.46061046E-06   -4.76248369E-02   -2.50698746E-01    3.39217244E-11    8.18296748E-01    8.18296748E-01   
                   9.00000000E+01    1.28000000E+02    5.90809920E-07   -1.21755538E-06   -8.68081935E-02   -2.76216263E-01    2.30152760E-11    1.05345250E+00    1.05345250E+00   
                   9.00000000E+01    1.30000000E+02    5.36968647E-07   -9.63401438E-07   -1.33480082E-01   -2.90527602E-01    1.52867091E-11    1.28457487E+00    1.28457487E+00   
                   9.00000000E+01    1.32000000E+02    5.77811944E-07   -7.34013858E-07   -1.83699728E-01   -2.92053028E-01    1.09659552E-11    1.49590781E+00    1.49590781E+00   
                   9.00000000E+01    1.34000000E+02    6.91012884E-07   -5.55260020E-07   -2.33431106E-01   -2.80616823E-01    9.87481104E-12    1.67429148E+00    1.67429148E+00   
                   9.00000000E+01    1.36000000E+02    8.49813633E-07   -4.41743996E-07   -2.79006750E-01   -2.57293481E-01    1.15273953E-11    1.81011911E+00    1.81011911E+00   
                   9.00000000E+01    1.38000000E+02    1.02740822E-06   -3.97401203E-07   -3.17469429E-01   -2.24125108E-01    1.52492324E-11    1.89775950E+00    1.89775950E+00   
                   9.00000000E+01    1.40000000E+02    1.20029218E-06   -4.17406288E-07   -3.46769581E-01   -1.83773374E-01    2.02938005E-11    1.93549496E+00    1.93549496E+00   
                   9.00000000E+01    1.42000000E+02    1.35035361E-06   -4.90781651E-07   -3.65822336E-01   -1.39164851E-01    2.59410292E-11    1.92507797E+00    1.92507797E+00   
                   9.00000000E+01    1.44000000E+02    1.46573731E-06   -6.03150402E-07   -3.74446966E-01   -9.31759713E-02    3.15689380E-11    1.87103572E+00    1.87103572E+00   
                   9.00000000E+01    1.46000000E+02    1.54069272E-06   -7.39210400E-07   -3.73222320E-01   -4.83873246E-02    3.66958891E-11    1.77985340E+00    1.77985340E+00   
                   9.00000000E+01    1.48000000E+02    1.57470822E-06   -8.84669026E-07   -3.63294762E-01   -6.92036722E-03    4.09958398E-11    1.65915017E+00    1.65915017E+00   
                   9.00000000E+01    1.50000000E+02    1.57125007E-06   -1.02753388E-06   -3.46171955E-01    2.96444735E-02    4.42920915E-11    1.51693456E+00    1.51693456E+00   
                   9.00000000E+01    1.52000000E+02    1.53638537E-06   -1.15877854E-06   -3.23528822E-01    6.02793542E-02    4.65363832E-11    1.36099447E+00    1.36099447E+00   
                   9.00000000E+01    1.54000000E+02    1.47749910E-06   -1.27248428E-06   -2.97043368E-01    8.44669618E-02    4.77801038E-11    1.19844761E+00    1.19844761E+00   
                   9.00000000E+01    1.56000000E+02    1.40223616E-06   -1.36559887E-06   -2.68271525E-01    1.02123354E-01    4.81433560E-11    1.03545374E+00    1.03545374E+00   
                   9.00000000E+01    1.58000000E+02    1.31772774E-06   -1.43745968E-06   -2.38562999E-01    1.13503024E-01    4.77860965E-11    8.77072865E-01    8.77072865E-01   
                   9.00000000E+01    1.60000000E+02    1.23010481E-06   -1.48921103E-06   -2.09014889E-01    1.19100496E-01    4.68839644E-11    7.27242909E-01    7.27242909E-01   
                   9.00000000E+01    1.62000000E+02    1.14426405E-06   -1.52321610E-06   -1.80456631E-01    1.19558917E-01    4.56099879E-11    5.88846685E-01    5.88846685E-01   
                   9.00000000E+01    1.64000000E+02    1.06383186E-06   -1.54253031E-06   -1.53458424E-01    1.15592244E-01    4.41222612E-11    4.63837994E-01    4.63837994E-01   
                   9.00000000E+01    1.66000000E+02    9.91266752E-07   -1.55047232E-06   -1.28355308E-01    1.07924215E-01    4.25569462E-11    3.53400540E-01    3.53400540E-01   
                   9.00000000E+01    1.68000000E+02    9.28044710E-07   -1.55030426E-06   -1.05279953E-01    9.72447248E-02    4.10255592E-11    2.58118341E-01    2.58118341E-01   
                   9.00000000E+01    1.70000000E+02    8.74881964E-07   -1.54501538E-06   -8.41986341E-02    8.41823851E-02    3.96153701E-11    1.78141925E-01    1.78141925E-01   
                   9.00000000E+01    1.72000000E+02    8.31961409E-07   -1.53719286E-06   -6.49464340E-02    6.92910667E-02    3.83917912E-11    1.13339756E-01    1.13339756E-01   
                   9.00000000E+01    1.74000000E+02    7.99140281E-07   -1.52895874E-06   -4.72591828E-02    5.30477555E-02    3.74017919E-11    6.34286893E-02    6.34286893E-02   
                   9.00000000E+01    1.76000000E+02    7.76126067E-07   -1.52195167E-06   -3.08009473E-02    3.58590788E-02    3.66775733E-11    2.80804585E-02    2.80804586E-02   
                   9.00000000E+01    1.78000000E+02    7.62614602E-07   -1.51733374E-06   -1.51868875E-02    1.80741075E-02    3.62399391E-11    7.00342577E-03    7.00342580E-03   
                   9.00000000E+01    1.80000000E+02    7.58388609E-07   -1.51580701E-06   -2.05488838E-06    1.40708673E-06    3.61009733E-11    7.79424025E-11    1.14043376E-10   
                   9.00000000E+01    1.82000000E+02    7.63377165E-07   -1.51762785E-06    1.51827749E-02   -1.80713188E-02    3.62657787E-11    7.00058958E-03    7.00058961E-03   
                   9.00000000E+01    1.84000000E+02    7.77677042E-07   -1.52261246E-06    3.07968272E-02   -3.58563665E-02    3.67331386E-11    2.80748249E-02    2.80748249E-02   
                   9.00000000E+01    1.86000000E+02    8.01536377E-07   -1.53013091E-06    4.72550530E-02   -5.30451701E-02    3.74950486E-11    6.34203375E-02    6.34203376E-02   
                   9.00000000E+01    1.88000000E+02    8.35300232E-07   -1.53909164E-06    6.49422966E-02   -6.92886586E-02    3.85351467E-11    1.13328809E-01    1.13328809E-01   
                   9.00000000E+01    1.90000000E+02    8.79317033E-07   -1.54792305E-06    8.41944969E-02   -8.41802033E-02    3.98261487E-11    1.78128554E-01    1.78128554E-01   
                   9.00000000E+01    1.92000000E+02    9.33805220E-07   -1.55456311E-06    1.05275831E-01   -9.72428166E-02    4.13265033E-11    2.58102772E-01    2.58102772E-01   
                   9.00000000E+01    1.94000000E+02    9.98681463E-07   -1.55647222E-06    1.28351226E-01   -1.07922625E-01    4.29766161E-11    3.53383057E-01    3.53383057E-01   
                   9.00000000E+01    1.96000000E+02    1.07335589E-06   -1.55068869E-06    1.53454415E-01   -1.15591010E-01    4.46951656E-11    4.63818947E-01    4.63818947E-01   
                   9.00000000E+01    1.98000000E+02    1.15650646E-06   -1.53394790E-06    1.80452738E-01   -1.19558072E-01    4.63762332E-11    5.88826491E-01    5.88826491E-01   
                   9.00000000E+01    2.00000000E+02    1.24585384E-06   -1.50288677E-06    2.09011167E-01   -1.19100061E-01    4.78881817E-11    7.27222056E-01    7.27222056E-01   
                   9.00000000E+01    2.02000000E+02    1.33796923E-06   -1.45435001E-06    2.38559510E-01   -1.13503010E-01    4.90753922E-11    8.77051904E-01    8.77051904E-01   
                   9.00000000E+01    2.04000000E+02    1.42815976E-06   -1.38580570E-06    2.68268340E-01   -1.02123753E-01    4.97640559E-11    1.03543329E+00    1.03543329E+00   
                   9.00000000E+01    2.06000000E+02    1.51048559E-06   -1.29586026E-06    2.97040560E-01   -8.44677474E-02    4.97731387E-11    1.19842831E+00    1.19842831E+00   
                   9.00000000E+01    2.08000000E+02    1.57796859E-06   -1.18483936E-06    3.23526464E-01   -6.02804799E-02    4.89313005E-11    1.36097701E+00    1.36097701E+00   
                   9.00000000E+01    2.10000000E+02    1.62304725E-06   -1.05537100E-06    3.46170115E-01   -2.96458696E-02    4.70998920E-11    1.51691960E+00    1.51691960E+00   
                   9.00000000E+01    2.12000000E+02    1.63831474E-06   -9.12873660E-07    3.63293494E-01    6.91879320E-03    4.42011216E-11    1.65913832E+00    1.65913832E+00   
                   9.00000000E+01    2.14000000E+02    1.61754070E-06   -7.65822577E-07    3.73221658E-01    4.83856852E-02    4.02491068E-11    1.77984519E+00    1.77984519E+00   
                   9.00000000E+01    2.16000000E+02    1.55692302E-06   -6.25648655E-07    3.74446916E-01    9.31743945E-02    3.53799320E-11    1.87103156E+00    1.87103156E+00   
                   9.00000000E+01    2.18000000E+02    1.45644475E-06   -5.06128926E-07    3.65822871E-01    1.39163473E-01    2.98752617E-11    1.92507807E+00    1.92507807E+00   
                   9.00000000E+01    2.20000000E+02    1.32113387E-06   -4.22164718E-07    3.46770635E-01    1.83772328E-01    2.41728935E-11    1.93549931E+00    1.93549931E+00   
                   9.00000000E+01    2.22000000E+02    1.16195322E-06   -3.87922196E-07    3.17470898E-01    2.24124511E-01    1.88573333E-11    1.89776786E+00    1.89776786E+00   
                   9.00000000E+01    2.24000000E+02    9.96007101E-07   -4.14430255E-07    2.79008492E-01    2.57293425E-01    1.46245232E-11    1.81013096E+00    1.81013096E+00   
                   9.00000000E+01    2.26000000E+02    8.45763097E-07   -5.06883355E-07    2.33432954E-01    2.80617356E-01    1.22176030E-11    1.67430608E+00    1.67430608E+00   
                   9.00000000E+01    2.28000000E+02    7.37073901E-07   -6.62058363E-07    1.83701501E-01    2.92054146E-01    1.23351395E-11    1.49592420E+00    1.49592420E+00   
                   9.00000000E+01    2.30000000E+02    6.95956132E-07   -8.66388341E-07    1.33481600E-01    2.90529244E-01    1.55192628E-11    1.28459195E+00    1.28459195E+00   
                   9.00000000E+01    2.32000000E+02    7.44333715E-07   -1.09529688E-06    8.68093041E-02    2.76218311E-01    2.20377438E-11    1.05346914E+00    1.05346914E+00   
                   9.00000000E+01    2.34000000E+02    8.95251272E-07   -1.31433861E-06    4.76254318E-02    2.50701032E-01    3.17798588E-11    8.18311867E-01    8.18311867E-01   
                   9.00000000E+01    2.36000000E+02    1.14835022E-06   -1.48248342E-06    1.92408625E-02    2.16930257E-01    4.41892064E-11    5.96009726E-01    5.96009726E-01   
                   9.00000000E+01    2.38000000E+02    1.48659928E-06   -1.55752112E-06    3.80894456E-03    1.78982016E-01    5.82558023E-11    4.02740493E-01    4.02740493E-01   
                   9.00000000E+01    2.40000000E+02    1.87529925E-06   -1.50308828E-06    1.90032360E-03    1.41586714E-01    7.25836288E-11    2.51960868E-01    2.51960868E-01   
                   9.00000000E+01    2.42000000E+02    2.26417433E-06   -1.29631482E-06    1.22765575E-02    1.09485408E-01    8.55382484E-11    1.52527695E-01    1.52527696E-01   
                   9.00000000E+01    2.44000000E+02    2.59289803E-06   -9.34674773E-07    3.19390268E-02    8.66996807E-02    9.54634141E-11    1.07278303E-01    1.07278303E-01   
                   9.00000000E+01    2.46000000E+02    2.79972367E-06   -4.40439937E-07    5.64882982E-02    7.58386597E-02    1.00938618E-10    1.12373891E-01    1.12373891E-01   
                   9.00000000E+01    2.48000000E+02    2.83211534E-06    1.38713005E-07    8.07711015E-02    7.75815195E-02    1.01035110E-10    1.57618265E-01    1.57618265E-01   
                   9.00000000E+01    2.50000000E+02    2.65757943E-06    7.33850765E-07    9.97278355E-02    9.04602393E-02    9.55203177E-11    2.27811914E-01    2.27811914E-01   
                   9.00000000E+01    2.52000000E+02    2.27248176E-06    1.26371426E-06    1.09297457E-01    1.11022856E-01    8.49630802E-11    3.05011056E-01    3.05011056E-01   
                   9.00000000E+01    2.54000000E+02    1.70667072E-06    1.64738826E-06    1.07204073E-01    1.34387075E-01    7.07061047E-11    3.71368914E-01    3.71368914E-01   
                   9.00000000E+01    2.56000000E+02    1.02229733E-06    1.81864597E-06    9.34527216E-02    1.55110704E-01    5.46959446E-11    4.12085744E-01    4.12085744E-01   
                   9.00000000E+01    2.58000000E+02    3.06280750E-07    1.73921012E-06    7.04055516E-02    1.68227581E-01    3.91902342E-11    4.17925579E-01    4.17925579E-01   
                   9.00000000E+01    2.60000000E+02   -3.42779204E-07    1.40803809E-06    4.23889162E-02    1.70245637E-01    2.63902434E-11    3.86797876E-01    3.86797876E-01   
                   9.00000000E+01    2.62000000E+02   -8.31098812E-07    8.64284746E-07    1.48814846E-02    1.59893718E-01    1.80668389E-11    3.24054777E-01    3.24054777E-01   
                   9.00000000E+01    2.64000000E+02   -1.08648807E-06    1.82772597E-07   -6.56912400E-03    1.38443134E-01    1.52538415E-11    2.41395641E-01    2.41395641E-01   
                   9.00000000E+01    2.66000000E+02   -1.07194954E-06   -5.37626702E-07   -1.74830620E-02    1.09513429E-01    1.80719273E-11    1.54551889E-01    1.54551889E-01   
                   9.00000000E+01    2.68000000E+02   -7.93108065E-07   -1.19068636E-06   -1.53962037E-02    7.83827166E-02    2.57202743E-11    8.01846707E-02    8.01846707E-02   
                   9.00000000E+01    2.70000000E+02   -2.97694668E-07   -1.68134614E-06   -4.09001466E-04    5.09350236E-02    3.66378436E-11    3.26040004E-02    3.26040004E-02   
                   9.00000000E+01    2.72000000E+02    3.32996140E-07   -1.94229015E-06    2.47913377E-02    3.24629151E-02    4.87999602E-11    2.09663771E-02    2.09663772E-02   
                   9.00000000E+01    2.74000000E+02    9.98986031E-07   -1.94516011E-06    5.54477176E-02    2.65807435E-02    6.00876210E-11    4.75132628E-02    4.75132628E-02   
                   9.00000000E+01    2.76000000E+02    1.59973810E-06   -1.70414635E-06    8.56812842E-02    3.44818421E-02    6.86535608E-11    1.07194659E-01    1.07194659E-01   
                   9.00000000E+01    2.78000000E+02    2.05175756E-06   -1.27139013E-06    1.09667403E-01    5.46965266E-02    7.32134591E-11    1.88729913E-01    1.88729913E-01   
                   9.00000000E+01    2.80000000E+02    2.30210724E-06   -7.25429728E-07    1.22788178E-01    8.33955981E-02    7.32109973E-11    2.76859291E-01    2.76859291E-01   
                   9.00000000E+01    2.82000000E+02    2.33530479E-06   -1.55381017E-07    1.22520947E-01    1.15163827E-01    6.88359609E-11    3.55302687E-01    3.55302687E-01   
                   9.00000000E+01    2.84000000E+02    2.17263164E-06    3.55682353E-07    1.08887312E-01    1.44068710E-01    6.09071646E-11    4.09817493E-01    4.09817493E-01   
                   9.00000000E+01    2.86000000E+02    1.86457593E-06    7.44747725E-07    8.43890044E-02    1.64794306E-01    5.06587167E-11    4.30758436E-01    4.30758436E-01   
                   9.00000000E+01    2.88000000E+02    1.47853456E-06    9.77709390E-07    5.34693448E-02    1.73608853E-01    3.94832863E-11    4.14677721E-01    4.14677721E-01   
                   9.00000000E+01    2.90000000E+02    1.08470203E-06    1.05180555E-06    2.16353387E-02    1.68984686E-01    2.86874331E-11    3.64725235E-01    3.64725235E-01   
                   9.00000000E+01    2.92000000E+02    7.43142802E-07    9.91886658E-07   -5.56526917E-03    1.51774205E-01    1.93032065E-11    2.89860698E-01    2.89860698E-01   
                   9.00000000E+01    2.94000000E+02    4.94442248E-07    8.42011086E-07   -2.35053485E-02    1.24943643E-01    1.19814790E-11    2.03115467E-01    2.03115467E-01   
                   9.00000000E+01    2.96000000E+02    3.55281810E-07    6.54633455E-07   -2.92040010E-02    9.29539237E-02    6.97144698E-12    1.19296397E-01    1.19296397E-01   
                   9.00000000E+01    2.98000000E+02    3.19088152E-07    4.79823545E-07   -2.17071370E-02    6.09368635E-02    4.17263676E-12    5.25839921E-02    5.25839921E-02   
                   9.00000000E+01    3.00000000E+02    3.60857464E-07    3.56577620E-07   -2.09264016E-03    3.38363475E-02    3.23415288E-12    1.44422477E-02    1.44422477E-02   
                   9.00000000E+01    3.02000000E+02    4.44567158E-07    3.07532244E-07    2.68560801E-02    1.56685916E-02    3.67209505E-12    1.21485865E-02    1.21485865E-02   
                   9.00000000E+01    3.04000000E+02    5.31349070E-07    3.37494314E-07    6.12097749E-02    9.01213229E-03    4.97922640E-12    4.81022455E-02    4.81022455E-02   
                   9.00000000E+01    3.06000000E+02    5.86780433E-07    4.35383304E-07    9.65609766E-02    1.47803339E-02    6.70880700E-12    1.19914346E-01    1.19914346E-01   
                   9.00000000E+01    3.08000000E+02    5.86130440E-07    5.78603998E-07    1.28675542E-01    3.22712130E-02    8.52416477E-12    2.21153375E-01    2.21153375E-01   
                   9.00000000E+01    3.10000000E+02    5.17016915E-07    7.38604410E-07    1.54028107E-01    5.94428272E-02    1.02144859E-11    3.42535482E-01    3.42535482E-01   
                   9.00000000E+01    3.12000000E+02    3.79520879E-07    8.86411588E-07    1.70158951E-01    9.33341716E-02    1.16837289E-11    4.73316572E-01    4.73316572E-01   
                   9.00000000E+01    3.14000000E+02    1.84259277E-07    9.97201837E-07    1.75830832E-01    1.30543099E-01    1.29227904E-11    6.02657781E-01    6.02657781E-01   
                   9.00000000E+01    3.16000000E+02   -5.08311509E-08    1.05334460E-06    1.71000462E-01    1.67681462E-01    1.39752950E-11    7.20784785E-01    7.20784785E-01   
                   9.00000000E+01    3.18000000E+02   -3.04194420E-07    1.04575527E-06    1.56644920E-01    2.01747947E-01    1.49054538E-11    8.19828324E-01    8.19828324E-01   
                   9.00000000E+01    3.20000000E+02   -5.54144744E-07    9.73720408E-07    1.34496425E-01    2.30384574E-01    1.57734068E-11    8.94302603E-01    8.94302603E-01   
                   9.00000000E+01    3.22000000E+02   -7.81655321E-07    8.43573462E-07    1.06740159E-01    2.52007671E-01    1.66202972E-11    9.41237849E-01    9.41237849E-01   