##File Type: Far field
##File Format: 5
##Source: Thin_wire_XY_rad_theta450.01
##Date: 2020-09-16 11:26:48
** File exported by POSTFEKO version 2018-319328 (x64)

#Configuration Name: StandardConfiguration1
#Request Name: FarField1
#Frequency: 3.00000000E+08
#Coordinate System: Spherical
#No. of Theta Samples: 1
#No. of Phi Samples: 181
#Result Type: RCS
#Incident Wave Direction: (4.50000000E+01, 0.00000000E+00)
#No. of Header Lines: 1
#                 "Theta"           "Phi"             "Re(Etheta)"      "Im(Etheta)"      "Re(Ephi)"        "Im(Ephi)"        "RCS(Theta)"      "RCS(Phi)"        "RCS(Total)"      
                   9.00000000E+01    0.00000000E+00   -2.93207837E-17    1.79740925E-17    0.00000000E+00    0.00000000E+00    1.48632061E-32    0.00000000E+00    1.48632061E-32   
                   9.00000000E+01    2.00000000E+00   -2.92449917E-17    1.80711130E-17    1.66784025E-02   -1.03059457E-02    1.48513724E-32    4.83028200E-03    4.83028200E-03   
                   9.00000000E+01    4.00000000E+00   -2.90148823E-17    1.83595701E-17    3.31347490E-02   -2.09664730E-02    1.48149619E-32    1.93208525E-02    1.93208525E-02   
                   9.00000000E+01    6.00000000E+00   -2.86224245E-17    1.88315092E-17    4.91298885E-02   -3.23239545E-02    1.47512719E-32    4.34618481E-02    4.34618481E-02   
                   9.00000000E+01    8.00000000E+00   -2.80548132E-17    1.94732252E-17    6.43915758E-02   -4.46950635E-02    1.46558947E-32    7.72068226E-02    7.72068226E-02   
                   9.00000000E+01    1.00000000E+01   -2.72953718E-17    2.02646505E-17    7.86007933E-02   -5.83548603E-02    1.45228714E-32    1.20428235E-01    1.20428235E-01   
                   9.00000000E+01    1.20000000E+01   -2.63248724E-17    2.11786206E-17    9.13818478E-02   -7.35176016E-02    1.43449252E-32    1.72856458E-01    1.72856458E-01   
                   9.00000000E+01    1.40000000E+01   -2.51233117E-17    2.21801423E-17    1.02297987E-01   -9.03138864E-02    1.41137873E-32    2.34004373E-01    2.34004373E-01   
                   9.00000000E+01    1.60000000E+01   -2.36721656E-17    2.32258326E-17    1.10854563E-01   -1.08764426E-01    1.38206292E-32    3.03081186E-01    3.03081186E-01   
                   9.00000000E+01    1.80000000E+01   -2.19571091E-17    2.42637280E-17    1.16511916E-01   -1.28751623E-01    1.34566118E-32    3.78901294E-01    3.78901294E-01   
                   9.00000000E+01    2.00000000E+01   -1.99711318E-17    2.52336974E-17    1.18710105E-01   -1.49991243E-01    1.30135523E-32    4.59796739E-01    4.59796739E-01   
                   9.00000000E+01    2.20000000E+01   -1.77178981E-17    2.60686941E-17    1.16907104E-01   -1.72007735E-01    1.24846983E-32    5.43544935E-01    5.43544935E-01   
                   9.00000000E+01    2.40000000E+01   -1.52151058E-17    2.66970674E-17    1.10631107E-01   -1.94118014E-01    1.18655800E-32    6.27326355E-01    6.27326355E-01   
                   9.00000000E+01    2.60000000E+01   -1.24974846E-17    2.70460899E-17    9.95459348E-02   -2.15429615E-01    1.11548920E-32    7.07729351E-01    7.07729351E-01   
                   9.00000000E+01    2.80000000E+01   -9.61898084E-18    2.70467441E-17    8.35261700E-02   -2.34859699E-01    1.03553323E-32    7.80820227E-01    7.80820227E-01   
                   9.00000000E+01    3.00000000E+01   -6.65359866E-18    2.66396472E-17    6.27357534E-02   -2.51181116E-01    9.47430429E-33    8.42295271E-01    8.42295271E-01   
                   9.00000000E+01    3.20000000E+01   -3.69435579E-18    2.57817732E-17    3.77004979E-02   -2.63100184E-01    8.52437356E-33    8.87726552E-01    8.87726552E-01   
                   9.00000000E+01    3.40000000E+01   -8.49882630E-19    2.44533837E-17    9.36193313E-03   -2.69367716E-01    7.52336386E-33    9.12904252E-01    9.12904252E-01   
                   9.00000000E+01    3.60000000E+01    1.76162324E-18    2.26643318E-17   -2.09022586E-02   -2.68920001E-01    6.49398935E-33    9.14264678E-01    9.14264678E-01   
                   9.00000000E+01    3.80000000E+01    4.02107000E-18    2.04587082E-17   -5.13062901E-02   -2.61040076E-01    5.46294997E-33    8.89375539E-01    8.89375539E-01   
                   9.00000000E+01    4.00000000E+01    5.81933662E-18    1.79167150E-17   -7.97454942E-02   -2.45522366E-01    4.45947011E-33    8.37430175E-01    8.37430175E-01   
                   9.00000000E+01    4.20000000E+01    7.06940514E-18    1.51527463E-17   -1.03953581E-01   -2.22816799E-01    3.51333365E-33    7.59683260E-01    7.59683260E-01   
                   9.00000000E+01    4.40000000E+01    7.71834811E-18    1.23089666E-17   -1.21725254E-01   -1.94123414E-01    2.65255421E-33    6.59746237E-01    6.59746237E-01   
                   9.00000000E+01    4.60000000E+01    7.75737836E-18    9.54423250E-18   -1.31188853E-01   -1.61407225E-01    1.90090600E-33    5.43656473E-01    5.43656473E-01   
                   9.00000000E+01    4.80000000E+01    7.22801360E-18    7.01895583E-18   -1.31099389E-01   -1.27307566E-01    1.27561129E-33    4.19644726E-01    4.19644726E-01   
                   9.00000000E+01    5.00000000E+01    6.22258951E-18    4.87737446E-18   -1.21109097E-01   -9.49274280E-02    7.85516311E-34    2.97554440E-01    2.97554440E-01   
                   9.00000000E+01    5.20000000E+01    4.87794014E-18    3.22950813E-18   -1.01963744E-01   -6.75065155E-02    4.30071754E-34    1.87914174E-01    1.87914174E-01   
                   9.00000000E+01    5.40000000E+01    3.36204481E-18    2.13564712E-18   -7.55721191E-02   -4.80051242E-02    1.99357099E-34    1.00727467E-01    1.00727467E-01   
                   9.00000000E+01    5.60000000E+01    1.85470721E-18    1.59634242E-18   -4.49062785E-02   -3.86507354E-02    7.52505431E-35    4.41136559E-02    4.41136559E-02   
                   9.00000000E+01    5.80000000E+01    5.24669887E-19    1.55039111E-18   -1.37124816E-02   -4.05201635E-02    3.36651948E-35    2.29954002E-02    2.29954002E-02   
                   9.00000000E+01    6.00000000E+01   -4.93319915E-19    1.88219940E-18    1.39543117E-02   -5.32409018E-02    4.75767709E-35    3.80675130E-02    3.80675130E-02   
                   9.00000000E+01    6.20000000E+01   -1.11740593E-18    2.43827055E-18    3.43206695E-02   -7.48904902E-02    9.03994454E-35    8.52815973E-02    8.52815973E-02   
                   9.00000000E+01    6.40000000E+01   -1.32962170E-18    3.05068330E-18    4.45210566E-02   -1.02149088E-01    1.39167057E-34    1.56031104E-01    1.56031104E-01   
                   9.00000000E+01    6.60000000E+01   -1.17627096E-18    3.56370852E-18    4.31462825E-02   -1.30718839E-01    1.76980137E-34    2.38120365E-01    2.38120365E-01   
                   9.00000000E+01    6.80000000E+01   -7.56902700E-19    3.85861268E-18    3.05949425E-02   -1.55969893E-01    1.94298628E-34    3.17459924E-01    3.17459924E-01   
                   9.00000000E+01    7.00000000E+01   -2.03480185E-19    3.87160068E-18    9.13009718E-03   -1.73717605E-01    1.88881297E-34    3.80273014E-01    3.80273014E-01   
                   9.00000000E+01    7.20000000E+01    3.46354792E-19    3.60094033E-18   -1.74086184E-02   -1.80991855E-01    1.64452736E-34    4.15458180E-01    4.15458180E-01   
                   9.00000000E+01    7.40000000E+01    7.76409074E-19    3.10147565E-18   -4.42194471E-02   -1.76640824E-01    1.28452966E-34    4.16667426E-01    4.16667426E-01   
                   9.00000000E+01    7.60000000E+01    1.01353042E-18    2.46755014E-18   -6.63872798E-02   -1.61627060E-01    8.94228917E-35    3.83658550E-01    3.83658550E-01   
                   9.00000000E+01    7.80000000E+01    1.03877304E-18    1.80815483E-18   -7.98114673E-02   -1.38924949E-01    5.46445274E-35    3.22578880E-01    3.22578880E-01   
                   9.00000000E+01    8.00000000E+01    8.85596931E-19    1.22013970E-18   -8.20231560E-02   -1.13008193E-01    2.85636470E-35    2.45027260E-01    2.45027260E-01   
                   9.00000000E+01    8.20000000E+01    6.25713535E-19    7.65963831E-19   -7.27096685E-02   -8.90071465E-02    1.22926502E-35    1.65988788E-01    1.65988788E-01   
                   9.00000000E+01    8.40000000E+01    3.46340611E-19    4.61427376E-19   -5.38148763E-02   -7.16972146E-02    4.18293061E-36    1.00990033E-01    1.00990033E-01   
                   9.00000000E+01    8.60000000E+01    1.24907532E-19    2.76300345E-19   -2.91718548E-02   -6.45292834E-02    1.15539952E-36    6.30206695E-02    6.30206695E-02   
                   9.00000000E+01    8.80000000E+01    7.97241591E-21    1.47361521E-19   -3.72842393E-03   -6.89159004E-02    2.73682700E-37    5.98574241E-02    5.98574241E-02   
                   9.00000000E+01    9.00000000E+01   -6.55308869E-35    3.14718932E-34    1.74777022E-02   -8.39384908E-02    1.29863768E-66    9.23771537E-02    9.23771537E-02   
                   9.00000000E+01    9.20000000E+01    6.49487539E-20   -2.27834674E-19    3.03742919E-02   -1.06550418E-01    7.05312422E-37    1.54259603E-01    1.54259603E-01   
                   9.00000000E+01    9.40000000E+01    1.40048133E-19   -5.66218712E-19    3.27079059E-02   -1.32239023E-01    4.27529428E-36    2.33193717E-01    2.33193717E-01   
                   9.00000000E+01    9.60000000E+01    1.57709207E-19   -1.00400875E-18    2.45050716E-02   -1.56004248E-01    1.29798766E-35    3.13377938E-01    3.13377938E-01   
                   9.00000000E+01    9.80000000E+01    6.91849457E-20   -1.49255001E-18    8.03948482E-03   -1.73438499E-01    2.80543230E-35    3.78820108E-01    3.78820108E-01   
                   9.00000000E+01    1.00000000E+02   -1.36951174E-19   -1.96147909E-18   -1.26842891E-02   -1.81670351E-01    4.85835472E-35    4.16763778E-01    4.16763778E-01   
                   9.00000000E+01    1.02000000E+02   -4.27053390E-19   -2.34235119E-18   -3.28115541E-02   -1.79968558E-01    7.12385503E-35    4.20537113E-01    4.20537113E-01   
                   9.00000000E+01    1.04000000E+02   -7.28006803E-19   -2.59359756E-18   -4.76851907E-02   -1.69883294E-01    9.11909119E-35    3.91244036E-01    3.91244036E-01   
                   9.00000000E+01    1.06000000E+02   -9.45197162E-19   -2.71988059E-18   -5.38325701E-02   -1.54907535E-01    1.04189640E-34    3.37963616E-01    3.37963616E-01   
                   9.00000000E+01    1.08000000E+02   -9.88548768E-19   -2.78034146E-18   -4.96868203E-02   -1.39746597E-01    1.09422015E-34    2.76433657E-01    2.76433657E-01   
                   9.00000000E+01    1.10000000E+02   -8.00209850E-19   -2.88308516E-18   -3.59051850E-02   -1.29363199E-01    1.12500632E-34    2.26496510E-01    2.26496510E-01   
                   9.00000000E+01    1.12000000E+02   -3.77044724E-19   -3.16671079E-18   -1.52406137E-02   -1.28002364E-01    1.27802753E-34    2.08813890E-01    2.08813890E-01   
                   9.00000000E+01    1.14000000E+02    2.17600537E-19   -3.77284240E-18    7.98171044E-03   -1.38389988E-01    1.79469006E-34    2.41469049E-01    2.41469049E-01   
                   9.00000000E+01    1.16000000E+02    8.55790853E-19   -4.81566864E-18    2.86553033E-02   -1.61247862E-01    3.00625818E-34    3.37055186E-01    3.37055186E-01   
                   9.00000000E+01    1.18000000E+02    1.36032385E-18   -6.35502453E-18    4.17817949E-02   -1.95191999E-01    5.30763505E-34    5.00715013E-01    5.00715013E-01   
                   9.00000000E+01    1.20000000E+02    1.53033847E-18   -8.37854147E-18    4.32879747E-02   -2.36999918E-01    9.11588313E-34    7.29387458E-01    7.29387458E-01   
                   9.00000000E+01    1.22000000E+02    1.17206802E-18   -1.07962292E-17    3.06325207E-02   -2.82164268E-01    1.48198110E-33    1.01228430E+00    1.01228430E+00   
                   9.00000000E+01    1.24000000E+02    1.28872282E-19   -1.34481490E-17    3.12026318E-03   -3.25607363E-01    2.27287089E-33    1.33241091E+00    1.33241091E+00   
                   9.00000000E+01    1.26000000E+02   -1.69474631E-18   -1.61232574E-17   -3.80945459E-02   -3.62418944E-01    3.30283922E-33    1.66879750E+00    1.66879750E+00   
                   9.00000000E+01    1.28000000E+02   -4.31886019E-18   -1.85855890E-17   -9.02772778E-02   -3.88495184E-01    4.57512241E-33    1.99903932E+00    1.99903932E+00   
                   9.00000000E+01    1.30000000E+02   -7.68517241E-18   -2.06030136E-17   -1.49575075E-01   -4.00992604E-01    6.07641880E-33    2.30175410E+00    2.30175410E+00   
                   9.00000000E+01    1.32000000E+02   -1.16648804E-17   -2.19738985E-17   -2.11573854E-01   -3.98555512E-01    7.77759882E-33    2.55863862E+00    2.55863862E+00   
                   9.00000000E+01    1.34000000E+02   -1.60750895E-17   -2.25479417E-17   -2.71853770E-01   -3.81319367E-01    9.63612139E-33    2.75591732E+00    2.75591732E+00   
                   9.00000000E+01    1.36000000E+02   -2.07004621E-17   -2.22388919E-17   -3.26464804E-01   -3.50727219E-01    1.15997333E-32    2.88509858E+00    2.88509858E+00   
                   9.00000000E+01    1.38000000E+02   -2.53164815E-17   -2.10284694E-17   -3.72271618E-01   -3.09217627E-01    1.36108969E-32    2.94306534E+00    2.94306534E+00   
                   9.00000000E+01    1.40000000E+02   -2.97110577E-17   -1.89622256E-17   -4.07146576E-01   -2.59849559E-01    1.56113650E-32    2.93161021E+00    2.93161021E+00   
                   9.00000000E+01    1.42000000E+02   -3.37020166E-17   -1.61391121E-17   -4.30016249E-01   -2.05924783E-01    1.75463838E-32    2.85657468E+00    2.85657468E+00   
                   9.00000000E+01    1.44000000E+02   -3.71490405E-17   -1.26970733E-17   -4.40785994E-01   -1.50655091E-01    1.93681309E-32    2.72676732E+00    2.72676732E+00   
                   9.00000000E+01    1.46000000E+02   -3.99596626E-17   -8.79705908E-18   -4.40178062E-01   -9.69045324E-02    2.10381512E-32    2.55282319E+00    2.55282319E+00   
                   9.00000000E+01    1.48000000E+02   -4.20897669E-17   -4.60755961E-18   -4.29521481E-01   -4.70196434E-02    2.25287138E-32    2.34613574E+00    2.34613574E+00   
                   9.00000000E+01    1.50000000E+02   -4.35396457E-17   -2.91244729E-19   -4.10528590E-01   -2.74610153E-03    2.38231441E-32    2.11795199E+00    2.11795199E+00   
                   9.00000000E+01    1.52000000E+02   -4.43469616E-17    4.00532731E-18   -3.85085688E-01    3.47801555E-02    2.49152884E-32    1.87868053E+00    1.87868053E+00   
                   9.00000000E+01    1.54000000E+02   -4.45780109E-17    8.15855359E-18   -3.55076234E-01    6.49851445E-02    2.58083226E-32    1.63742575E+00    1.63742575E+00   
                   9.00000000E+01    1.56000000E+02   -4.43185333E-17    1.20712903E-17   -3.22246093E-01    8.77719962E-02    2.65131375E-32    1.40173425E+00    1.40173425E+00   
                   9.00000000E+01    1.58000000E+02   -4.36650443E-17    1.56734634E-17   -2.88112835E-01    1.03417414E-01    2.70465185E-32    1.17752129E+00    1.17752129E+00   
                   9.00000000E+01    1.60000000E+02   -4.27173545E-17    1.89204233E-17   -2.53915587E-01    1.12464604E-01    2.74293057E-32    9.69136250E-01    9.69136250E-01   
                   9.00000000E+01    1.62000000E+02   -4.15726305E-17    2.17897396E-17   -2.20598568E-01    1.15623796E-01    2.76846741E-32    7.79524519E-01    7.79524519E-01   
                   9.00000000E+01    1.64000000E+02   -4.03210984E-17    2.42770946E-17   -1.88819975E-01    1.13687389E-01    2.78366258E-32    6.10446707E-01    6.10446707E-01   
                   9.00000000E+01    1.66000000E+02   -3.90432907E-17    2.63918288E-17   -1.58977849E-01    1.07463180E-01    2.79087427E-32    4.62722562E-01    4.62722562E-01   
                   9.00000000E+01    1.68000000E+02   -3.78086171E-17    2.81525652E-17   -1.31245509E-01    9.77263399E-02    2.79232101E-32    3.36474893E-01    3.36474893E-01   
                   9.00000000E+01    1.70000000E+02   -3.66749691E-17    2.95832006E-17   -1.05610639E-01    8.51889124E-02    2.79000962E-32    2.31356407E-01    2.31356407E-01   
                   9.00000000E+01    1.72000000E+02   -3.56890551E-17    3.07094337E-17   -8.19137337E-02    7.04844769E-02    2.78568536E-32    1.46749086E-01    1.46749086E-01   
                   9.00000000E+01    1.74000000E+02   -3.48871773E-17    3.15559036E-17   -5.98832266E-02    5.41651539E-02    2.78079983E-32    8.19310366E-02    8.19310366E-02   
                   9.00000000E+01    1.76000000E+02   -3.42961995E-17    3.21439437E-17   -3.91659684E-02    3.67081106E-02    2.77649236E-32    3.62094750E-02    3.62094750E-02   
                   9.00000000E+01    1.78000000E+02   -3.39345018E-17    3.24899166E-17   -1.93528275E-02    1.85289814E-02    2.77358032E-32    9.02083305E-03    9.02083305E-03   
                   9.00000000E+01    1.80000000E+02   -3.38127682E-17    3.26040779E-17   -6.76255364E-17    6.52081558E-17    2.77255503E-32    1.10902201E-31    1.38627751E-31   
                   9.00000000E+01    1.82000000E+02   -3.39345010E-17    3.24899177E-17    1.93528271E-02   -1.85289820E-02    2.77358034E-32    9.02083310E-03    9.02083310E-03   
                   9.00000000E+01    1.84000000E+02   -3.42961980E-17    3.21439457E-17    3.91659667E-02   -3.67081128E-02    2.77649239E-32    3.62094754E-02    3.62094754E-02   
                   9.00000000E+01    1.86000000E+02   -3.48871753E-17    3.15559064E-17    5.98832231E-02   -5.41651587E-02    2.78079987E-32    8.19310378E-02    8.19310378E-02   
                   9.00000000E+01    1.88000000E+02   -3.56890527E-17    3.07094371E-17    8.19137283E-02   -7.04844845E-02    2.78568540E-32    1.46749089E-01    1.46749089E-01   
                   9.00000000E+01    1.90000000E+02   -3.66749667E-17    2.95832042E-17    1.05610632E-01   -8.51889227E-02    2.79000967E-32    2.31356411E-01    2.31356411E-01   
                   9.00000000E+01    1.92000000E+02   -3.78086149E-17    2.81525688E-17    1.31245502E-01   -9.77263521E-02    2.79232105E-32    3.36474898E-01    3.36474898E-01   
                   9.00000000E+01    1.94000000E+02   -3.90432889E-17    2.63918319E-17    1.58977842E-01   -1.07463193E-01    2.79087430E-32    4.62722567E-01    4.62722567E-01   
                   9.00000000E+01    1.96000000E+02   -4.03210971E-17    2.42770970E-17    1.88819969E-01   -1.13687400E-01    2.78366260E-32    6.10446711E-01    6.10446711E-01   
                   9.00000000E+01    1.98000000E+02   -4.15726299E-17    2.17897410E-17    2.20598564E-01   -1.15623803E-01    2.76846741E-32    7.79524520E-01    7.79524520E-01   
                   9.00000000E+01    2.00000000E+02   -4.27173543E-17    1.89204234E-17    2.53915586E-01   -1.12464605E-01    2.74293055E-32    9.69136245E-01    9.69136245E-01   
                   9.00000000E+01    2.02000000E+02   -4.36650445E-17    1.56734622E-17    2.88112836E-01   -1.03417406E-01    2.70465182E-32    1.17752128E+00    1.17752128E+00   
                   9.00000000E+01    2.04000000E+02   -4.43185336E-17    1.20712879E-17    3.22246095E-01   -8.77719785E-02    2.65131370E-32    1.40173423E+00    1.40173423E+00   
                   9.00000000E+01    2.06000000E+02   -4.45780111E-17    8.15855007E-18    3.55076235E-01   -6.49851165E-02    2.58083220E-32    1.63742571E+00    1.63742571E+00   
                   9.00000000E+01    2.08000000E+02   -4.43469615E-17    4.00532303E-18    3.85085687E-01   -3.47801184E-02    2.49152878E-32    1.87868048E+00    1.87868048E+00   
                   9.00000000E+01    2.10000000E+02   -4.35396452E-17   -2.91249379E-19    4.10528585E-01    2.74614538E-03    2.38231435E-32    2.11795194E+00    2.11795194E+00   
                   9.00000000E+01    2.12000000E+02   -4.20897659E-17   -4.60756422E-18    4.29521471E-01    4.70196904E-02    2.25287133E-32    2.34613568E+00    2.34613568E+00   
                   9.00000000E+01    2.14000000E+02   -3.99596612E-17   -8.79706326E-18    4.40178047E-01    9.69045784E-02    2.10381508E-32    2.55282313E+00    2.55282313E+00   
                   9.00000000E+01    2.16000000E+02   -3.71490389E-17   -1.26970768E-17    4.40785975E-01    1.50655132E-01    1.93681305E-32    2.72676727E+00    2.72676727E+00   
                   9.00000000E+01    2.18000000E+02   -3.37020150E-17   -1.61391147E-17    4.30016229E-01    2.05924816E-01    1.75463835E-32    2.85657463E+00    2.85657463E+00   
                   9.00000000E+01    2.20000000E+02   -2.97110564E-17   -1.89622273E-17    4.07146558E-01    2.59849581E-01    1.56113648E-32    2.93161017E+00    2.93161017E+00   
                   9.00000000E+01    2.22000000E+02   -2.53164806E-17   -2.10284702E-17    3.72271605E-01    3.09217640E-01    1.36108967E-32    2.94306532E+00    2.94306532E+00   
                   9.00000000E+01    2.24000000E+02   -2.07004617E-17   -2.22388922E-17    3.26464798E-01    3.50727223E-01    1.15997332E-32    2.88509857E+00    2.88509857E+00   
                   9.00000000E+01    2.26000000E+02   -1.60750896E-17   -2.25479416E-17    2.71853772E-01    3.81319366E-01    9.63612142E-33    2.75591733E+00    2.75591733E+00   
                   9.00000000E+01    2.28000000E+02   -1.16648809E-17   -2.19738983E-17    2.11573864E-01    3.98555510E-01    7.77759889E-33    2.55863865E+00    2.55863865E+00   
                   9.00000000E+01    2.30000000E+02   -7.68517319E-18   -2.06030135E-17    1.49575090E-01    4.00992603E-01    6.07641890E-33    2.30175414E+00    2.30175414E+00   
                   9.00000000E+01    2.32000000E+02   -4.31886104E-18   -1.85855891E-17    9.02772954E-02    3.88495185E-01    4.57512253E-33    1.99903938E+00    1.99903938E+00   
                   9.00000000E+01    2.34000000E+02   -1.69474708E-18   -1.61232577E-17    3.80945631E-02    3.62418950E-01    3.30283936E-33    1.66879757E+00    1.66879757E+00   
                   9.00000000E+01    2.36000000E+02    1.28871708E-19   -1.34481494E-17   -3.12024927E-03    3.25607373E-01    2.27287103E-33    1.33241099E+00    1.33241099E+00   
                   9.00000000E+01    2.38000000E+02    1.17206769E-18   -1.07962297E-17   -3.06325120E-02    2.82164282E-01    1.48198123E-33    1.01228440E+00    1.01228440E+00   
                   9.00000000E+01    2.40000000E+02    1.53033839E-18   -8.37854204E-18   -4.32879724E-02    2.36999934E-01    9.11588429E-34    7.29387551E-01    7.29387551E-01   
                   9.00000000E+01    2.42000000E+02    1.36032399E-18   -6.35502507E-18   -4.17817992E-02    1.95192015E-01    5.30763596E-34    5.00715099E-01    5.00715099E-01   
                   9.00000000E+01    2.44000000E+02    8.55791167E-19   -4.81566911E-18   -2.86553138E-02    1.61247878E-01    3.00625881E-34    3.37055257E-01    3.37055257E-01   
                   9.00000000E+01    2.46000000E+02    2.17600957E-19   -3.77284274E-18   -7.98172587E-03    1.38390000E-01    1.79469042E-34    2.41469096E-01    2.41469096E-01   
                   9.00000000E+01    2.48000000E+02   -3.77044270E-19   -3.16671100E-18    1.52405953E-02    1.28002372E-01    1.27802766E-34    2.08813910E-01    2.08813910E-01   
                   9.00000000E+01    2.50000000E+02   -8.00209436E-19   -2.88308523E-18    3.59051664E-02    1.29363202E-01    1.12500629E-34    2.26496503E-01    2.26496503E-01   
                   9.00000000E+01    2.52000000E+02   -9.88548457E-19   -2.78034141E-18    4.96868046E-02    1.39746595E-01    1.09422004E-34    2.76433629E-01    2.76433629E-01   
                   9.00000000E+01    2.54000000E+02   -9.45196989E-19   -2.71988047E-18    5.38325603E-02    1.54907529E-01    1.04189628E-34    3.37963577E-01    3.37963577E-01   
                   9.00000000E+01    2.56000000E+02   -7.28006769E-19   -2.59359743E-18    4.76851884E-02    1.69883286E-01    9.11909032E-35    3.91243998E-01    3.91243998E-01   
                   9.00000000E+01    2.58000000E+02   -4.27053458E-19   -2.34235111E-18    3.28115593E-02    1.79968552E-01    7.12385460E-35    4.20537087E-01    4.20537087E-01   
                   9.00000000E+01    2.60000000E+02   -1.36951285E-19   -1.96147906E-18    1.26842994E-02    1.81670349E-01    4.85835463E-35    4.16763771E-01    4.16763771E-01   
                   9.00000000E+01    2.62000000E+02    6.91848467E-20   -1.49255004E-18   -8.03947332E-03    1.73438502E-01    2.80543238E-35    3.78820119E-01    3.78820119E-01   
                   9.00000000E+01    2.64000000E+02    1.57709153E-19   -1.00400879E-18   -2.45050632E-02    1.56004255E-01    1.29798776E-35    3.13377961E-01    3.13377961E-01   
                   9.00000000E+01    2.66000000E+02    1.40048123E-19   -5.66218746E-19   -3.27079036E-02    1.32239031E-01    4.27529474E-36    2.33193742E-01    2.33193742E-01   
                   9.00000000E+01    2.68000000E+02    6.49487636E-20   -2.27834684E-19   -3.03742964E-02    1.06550423E-01    7.05312496E-37    1.54259620E-01    1.54259620E-01   
                   9.00000000E+01    2.70000000E+02    1.96592764E-34   -9.44156774E-34   -1.74777113E-02    8.39384889E-02    1.16877391E-65    9.23771536E-02    9.23771536E-02   
                   9.00000000E+01    2.72000000E+02    7.97239476E-21    1.47361501E-19    3.72841403E-03    6.89158909E-02    2.73682621E-37    5.98574068E-02    5.98574068E-02   
                   9.00000000E+01    2.74000000E+02    1.24907504E-19    2.76300282E-19    2.91718481E-02    6.45292687E-02    1.15539899E-36    6.30206407E-02    6.30206407E-02   
                   9.00000000E+01    2.76000000E+02    3.46340603E-19    4.61427277E-19    5.38148750E-02    7.16971994E-02    4.18292940E-36    1.00990004E-01    1.00990004E-01   
                   9.00000000E+01    2.78000000E+02    6.25713561E-19    7.65963743E-19    7.27096716E-02    8.90071362E-02    1.22926489E-35    1.65988770E-01    1.65988770E-01   
                   9.00000000E+01    2.80000000E+02    8.85596971E-19    1.22013969E-18    8.20231598E-02    1.13008192E-01    2.85636475E-35    2.45027264E-01    2.45027264E-01   
                   9.00000000E+01    2.82000000E+02    1.03877302E-18    1.80815495E-18    7.98114665E-02    1.38924957E-01    5.46445324E-35    3.22578909E-01    3.22578909E-01   
                   9.00000000E+01    2.84000000E+02    1.01353027E-18    2.46755039E-18    6.63872699E-02    1.61627076E-01    8.94229032E-35    3.83658599E-01    3.83658599E-01   
                   9.00000000E+01    2.86000000E+02    7.76408709E-19    3.10147598E-18    4.42194263E-02    1.76640842E-01    1.28452984E-34    4.16667484E-01    4.16667484E-01   
                   9.00000000E+01    2.88000000E+02    3.46354199E-19    3.60094062E-18    1.74085886E-02    1.80991869E-01    1.64452757E-34    4.15458234E-01    4.15458234E-01   
                   9.00000000E+01    2.90000000E+02   -2.03480933E-19    3.87160083E-18   -9.13013075E-03    1.73717612E-01    1.88881315E-34    3.80273050E-01    3.80273050E-01   
                   9.00000000E+01    2.92000000E+02   -7.56903453E-19    3.85861260E-18   -3.05949730E-02    1.55969890E-01    1.94298634E-34    3.17459935E-01    3.17459935E-01   
                   9.00000000E+01    2.94000000E+02   -1.17627153E-18    3.56370822E-18   -4.31463033E-02    1.30718828E-01    1.76980127E-34    2.38120351E-01    2.38120351E-01   
                   9.00000000E+01    2.96000000E+02   -1.32962190E-18    3.05068287E-18   -4.45210635E-02    1.02149074E-01    1.39167030E-34    1.56031074E-01    1.56031074E-01   
                   9.00000000E+01    2.98000000E+02   -1.11740567E-18    2.43827015E-18   -3.43206614E-02    7.48904779E-02    9.03994135E-35    8.52815672E-02    8.52815672E-02   
                   9.00000000E+01    3.00000000E+02   -4.93319184E-19    1.88219921E-18   -1.39542910E-02    5.32408962E-02    4.75767526E-35    3.80674984E-02    3.80674984E-02   
                   9.00000000E+01    3.02000000E+02    5.24670988E-19    1.55039125E-18    1.37125104E-02    4.05201673E-02    3.36652150E-35    2.29954139E-02    2.29954139E-02   
                   9.00000000E+01    3.04000000E+02    1.85470851E-18    1.59634296E-18    4.49063100E-02    3.86507485E-02    7.52506254E-35    4.41137041E-02    4.41137041E-02   
                   9.00000000E+01    3.06000000E+02    3.36204611E-18    2.13564802E-18    7.55721484E-02    4.80051443E-02    1.99357258E-34    1.00727547E-01    1.00727547E-01   
                   9.00000000E+01    3.08000000E+02    4.87794128E-18    3.22950926E-18    1.01963768E-01    6.75065392E-02    4.30071985E-34    1.87914275E-01    1.87914275E-01   
                   9.00000000E+01    3.10000000E+02    6.22259035E-18    4.87737566E-18    1.21109113E-01    9.49274512E-02    7.85516588E-34    2.97554545E-01    2.97554545E-01   
                   9.00000000E+01    3.12000000E+02    7.22801407E-18    7.01895691E-18    1.31099398E-01    1.27307586E-01    1.27561157E-33    4.19644817E-01    4.19644817E-01   
                   9.00000000E+01    3.14000000E+02    7.75737844E-18    9.54423330E-18    1.31188854E-01    1.61407239E-01    1.90090621E-33    5.43656532E-01    5.43656532E-01   
                   9.00000000E+01    3.16000000E+02    7.71834782E-18    1.23089670E-17    1.21725249E-01    1.94123421E-01    2.65255428E-33    6.59746255E-01    6.59746255E-01   
                   9.00000000E+01    3.18000000E+02    7.06940450E-18    1.51527462E-17    1.03953571E-01    2.22816799E-01    3.51333352E-33    7.59683233E-01    7.59683233E-01   
                   9.00000000E+01    3.20000000E+02    5.81933566E-18    1.79167145E-17    7.97454810E-02    2.45522359E-01    4.45946974E-33    8.37430106E-01    8.37430106E-01   
                   9.00000000E+01    3.22000000E+02    4.02106874E-18    2.04587073E-17    5.13062740E-02    2.61040064E-01    5.46294937E-33    8.89375440E-01    8.89375440E-01   