##File Type: Far field
##File Format: 5
##Source: RWG_wire_XY_rad_theta450.28
##Date: 2020-09-16 10:50:29
** File exported by POSTFEKO version 2018-319328 (x64)

#Configuration Name: StandardConfiguration1
#Request Name: FarField1
#Frequency: 3.00000000E+08
#Coordinate System: Spherical
#No. of Theta Samples: 1
#No. of Phi Samples: 181
#Result Type: RCS
#Incident Wave Direction: (4.50000000E+01, 0.00000000E+00)
#No. of Header Lines: 1
#                 "Theta"           "Phi"             "Re(Etheta)"      "Im(Etheta)"      "Re(Ephi)"        "Im(Ephi)"        "RCS(Theta)"      "RCS(Phi)"        "RCS(Total)"      
                   9.00000000E+01    0.00000000E+00   -2.93389740E-01   -2.98459160E-01   -9.67963583E-06    9.20892984E-05    2.20106779E+00    1.07745748E-07    2.20106790E+00   
                   9.00000000E+01    2.00000000E+00   -2.94620782E-01   -2.97038269E-01    7.34229287E-03    3.44032818E-03    2.19953129E+00    8.26177576E-04    2.20035747E+00   
                   9.00000000E+01    4.00000000E+00   -2.98225766E-01   -2.92704886E-01    1.47208247E-02    6.60661528E-03    2.19427377E+00    3.27165517E-03    2.19754542E+00   
                   9.00000000E+01    6.00000000E+00   -3.04008438E-01   -2.85317181E-01    2.21407208E-02    9.40733460E-03    2.18437481E+00    7.27227758E-03    2.19164709E+00   
                   9.00000000E+01    8.00000000E+00   -3.11632465E-01   -2.74656852E-01    2.95941600E-02    1.16553206E-02    2.16834207E+00    1.27129046E-02    2.18105498E+00   
                   9.00000000E+01    1.00000000E+01   -3.20609882E-01   -2.60456549E-01    3.70391077E-02    1.31609917E-02    2.14417858E+00    1.94163897E-02    2.16359497E+00   
                   9.00000000E+01    1.20000000E+01   -3.30289173E-01   -2.42439157E-01    4.43878520E-02    1.37369385E-02    2.10948751E+00    2.71306042E-02    2.13661812E+00   
                   9.00000000E+01    1.40000000E+01   -3.39847212E-01   -2.20369151E-01    5.14964128E-02    1.32070084E-02    2.06162230E+00    3.55164037E-02    2.09713871E+00   
                   9.00000000E+01    1.60000000E+01   -3.48290365E-01   -1.94115303E-01    5.81561211E-02    1.14206890E-02    1.99788868E+00    4.41402132E-02    2.04202889E+00   
                   9.00000000E+01    1.80000000E+01   -3.54470790E-01   -1.63722501E-01    6.40892700E-02    8.27313797E-03    1.91580098E+00    5.24756474E-02    1.96827663E+00   
                   9.00000000E+01    2.00000000E+01   -3.57124163E-01   -1.29488241E-01    6.89512827E-02    3.73046412E-03    1.81338851E+00    5.99189150E-02    1.87330742E+00   
                   9.00000000E+01    2.20000000E+01   -3.54934352E-01   -9.20366760E-02    7.23421905E-02   -2.14121119E-03    1.68953777E+00    6.58223641E-02    1.75536014E+00   
                   9.00000000E+01    2.40000000E+01   -3.46628614E-01   -5.23801855E-02    7.38301703E-02   -9.14576654E-03    1.54434512E+00    6.95490695E-02    1.61389419E+00   
                   9.00000000E+01    2.60000000E+01   -3.31103502E-01   -1.19557672E-02    7.29892556E-02   -1.69306135E-02    1.37944154E+00    7.05485736E-02    1.44999011E+00   
                   9.00000000E+01    2.80000000E+01   -3.07576685E-01    2.73781052E-02    6.94518928E-02   -2.49697607E-02    1.19824086E+00    6.84497039E-02    1.26669056E+00   
                   9.00000000E+01    3.00000000E+01   -2.75753513E-01    6.33984236E-02    6.29746707E-02   -3.25635976E-02    1.00605559E+00    6.31610547E-02    1.06921665E+00   
                   9.00000000E+01    3.20000000E+01   -2.35990104E-01    9.36398948E-02    5.35123249E-02   -3.88629009E-02    8.10025224E-01    5.49639728E-02    8.64989197E-01   
                   9.00000000E+01    3.40000000E+01   -1.89427909E-01    1.15587926E-01    4.12912979E-02   -4.29234848E-02    6.18812089E-01    4.45779032E-02    6.63389992E-01   
                   9.00000000E+01    3.60000000E+01   -1.38069843E-01    1.26938137E-01    2.68702968E-02   -4.37949640E-02    4.42041845E-01    3.31753658E-02    4.75217211E-01   
                   9.00000000E+01    3.80000000E+01   -8.47668390E-02    1.25905428E-01    1.11723176E-02   -4.06420402E-02    2.89498940E-01    2.23253651E-02    3.11824306E-01   
                   9.00000000E+01    4.00000000E+01   -3.30879262E-02    1.11551134E-01   -4.52837565E-03   -3.28897073E-02    1.70129386E-01    1.38511442E-02    1.83980531E-01   
                   9.00000000E+01    4.20000000E+01    1.29420024E-02    8.40829350E-02   -1.86786564E-02   -2.03755707E-02    9.09482952E-02    9.60141193E-03    1.00549707E-01   
                   9.00000000E+01    4.40000000E+01    4.92345076E-02    4.50721046E-02   -2.95864396E-02   -3.48449074E-03    5.59898583E-02    1.11526424E-02    6.71425007E-02   
                   9.00000000E+01    4.60000000E+01    7.21338947E-02   -2.46992186E-03   -3.56256544E-02    1.67649748E-02    6.54632420E-02    1.94810366E-02    8.49442786E-02   
                   9.00000000E+01    4.80000000E+01    7.89648233E-02   -5.42057697E-02   -3.54897452E-02    3.87140364E-02    1.15280225E-01    3.46618028E-02    1.49942027E-01   
                   9.00000000E+01    5.00000000E+01    6.85542074E-02   -1.04806794E-01   -2.84614949E-02    6.01632564E-02    1.97092758E-01    5.56649266E-02    2.52757685E-01   
                   9.00000000E+01    5.20000000E+01    4.16342014E-02   -1.48505385E-01   -1.46529759E-02    7.85910879E-02    2.98919477E-01    8.03150525E-02    3.79234530E-01   
                   9.00000000E+01    5.40000000E+01    1.03115364E-03   -1.79821002E-01    4.83883319E-03    9.14833535E-02    4.06354406E-01    1.05464752E-01    5.11819157E-01   
                   9.00000000E+01    5.60000000E+01   -4.84376570E-02   -1.94372788E-01    2.79137274E-02    9.67398529E-02    5.04250592E-01    1.27395042E-01    6.31645634E-01   
                   9.00000000E+01    5.80000000E+01   -1.00400454E-01   -1.89655294E-01    5.16261029E-02    9.30982957E-02    5.78673596E-01    1.42408988E-01    7.21082584E-01   
                   9.00000000E+01    6.00000000E+01   -1.47686931E-01   -1.65634167E-01    7.25305722E-02    8.04959276E-02    6.18844829E-01    1.47532688E-01    7.66377516E-01   
                   9.00000000E+01    6.20000000E+01   -1.83326032E-01   -1.25024135E-01    8.71895632E-02    6.02823342E-02    6.18761405E-01    1.41195486E-01    7.59956891E-01   
                   9.00000000E+01    6.40000000E+01   -2.01646293E-01   -7.31469003E-02    9.27758499E-02    3.52082870E-02    5.78200029E-01    1.23740823E-01    7.01940852E-01   
                   9.00000000E+01    6.60000000E+01   -1.99294781E-01   -1.73301205E-02    8.76671457E-02    9.14715520E-03    5.02890355E-01    9.76306324E-02    6.00520988E-01   
                   9.00000000E+01    6.80000000E+01   -1.75976144E-01    3.41078287E-02    7.19097512E-02   -1.34454956E-02    4.03769389E-01    6.72526228E-02    4.71022012E-01   
                   9.00000000E+01    7.00000000E+01   -1.34737909E-01    7.31540296E-02    4.74324069E-02   -2.82701037E-02    2.95382798E-01    3.83152659E-02    3.33698064E-01   
                   9.00000000E+01    7.20000000E+01   -8.16933980E-02    9.34701252E-02    1.79241634E-02   -3.19998288E-02    1.93653748E-01    1.69050945E-02    2.10558842E-01   
                   9.00000000E+01    7.40000000E+01   -2.51714219E-02    9.15843504E-02   -1.16510920E-02   -2.30186388E-02    1.13364920E-01    8.36424761E-03    1.21729168E-01   
                   9.00000000E+01    7.60000000E+01    2.56044143E-02    6.76616581E-02   -3.58554697E-02   -1.91564608E-03    6.57684381E-02    1.62016257E-02    8.19700638E-02   
                   9.00000000E+01    7.80000000E+01    6.20978104E-02    2.56648555E-02   -4.97690199E-02    2.84004792E-02    5.67349373E-02    4.12622128E-02    9.79971501E-02   
                   9.00000000E+01    8.00000000E+01    7.80201583E-02   -2.71761015E-02   -4.99897495E-02    6.30386586E-02    8.57740948E-02    8.13402010E-02    1.67114296E-01   
                   9.00000000E+01    8.20000000E+01    7.05644561E-02   -8.15365795E-02   -3.54340212E-02    9.58962316E-02    1.46116181E-01    1.31339397E-01    2.77455578E-01   
                   9.00000000E+01    8.40000000E+01    4.10492855E-02   -1.27626422E-01   -7.74931884E-03    1.20749364E-01    2.25862259E-01    1.83977456E-01    4.09839714E-01   
                   9.00000000E+01    8.60000000E+01   -5.18942584E-03   -1.56983586E-01    2.87843327E-02    1.32468165E-01    3.10022120E-01    2.30924058E-01    5.40946178E-01   
                   9.00000000E+01    8.80000000E+01   -5.96774325E-02   -1.64087263E-01    6.78898011E-02    1.28116855E-01    3.83098697E-01    2.64182227E-01    6.47280924E-01   
                   9.00000000E+01    9.00000000E+01   -1.12313176E-01   -1.47463046E-01    1.02378544E-01    1.07704014E-01    4.31775458E-01    2.77484576E-01    7.09260034E-01   
                   9.00000000E+01    9.20000000E+01   -1.53235157E-01   -1.10041538E-01    1.25498827E-01    7.44047379E-02    4.47239058E-01    2.67488023E-01    7.14727082E-01   
                   9.00000000E+01    9.40000000E+01   -1.74685739E-01   -5.86761603E-02    1.32292266E-01    3.41754746E-02    4.26728804E-01    2.34604170E-01    6.61332974E-01   
                   9.00000000E+01    9.60000000E+01   -1.72500971E-01   -2.89625167E-03    1.20689365E-01   -5.19665637E-03    3.74037685E-01    1.83380142E-01    5.57417826E-01   
                   9.00000000E+01    9.80000000E+01   -1.46924716E-01    4.68692906E-02    9.21162457E-02   -3.54514415E-02    2.98873563E-01    1.22424189E-01    4.21297752E-01   
                   9.00000000E+01    1.00000000E+02   -1.02580069E-01    8.12505391E-02    5.14751882E-02   -4.93744610E-02    2.15190559E-01    6.39318177E-02    2.79122377E-01   
                   9.00000000E+01    1.02000000E+02   -4.76029371E-02    9.36908864E-02    6.48208336E-03   -4.21939485E-02    1.38783271E-01    2.29002839E-02    1.61683555E-01   
                   9.00000000E+01    1.04000000E+02    7.88633231E-03    8.16541292E-02   -3.35312228E-02   -1.25919615E-02    8.45665353E-02    1.61214019E-02    1.00687937E-01   
                   9.00000000E+01    1.06000000E+02    5.36652652E-02    4.70569057E-02   -5.91388305E-02    3.68612427E-02    6.40170259E-02    6.10242120E-02    1.25041238E-01   
                   9.00000000E+01    1.08000000E+02    8.12730394E-02   -4.13939426E-03   -6.23961433E-02    9.99313068E-02    8.32200544E-02    1.74415504E-01    2.57635558E-01   
                   9.00000000E+01    1.10000000E+02    8.54989596E-02   -6.30726124E-02   -3.81920380E-02    1.67561193E-01    1.41852038E-01    3.71152595E-01    5.13004633E-01   
                   9.00000000E+01    1.12000000E+02    6.52283573E-02   -1.19613309E-01    1.48514761E-02    2.29177850E-01    2.33258006E-01    6.62788754E-01    8.96046760E-01   
                   9.00000000E+01    1.14000000E+02    2.35188598E-02   -1.64157893E-01    9.40729292E-02    2.74234581E-01    3.45587139E-01    1.05625776E+00    1.40184490E+00   
                   9.00000000E+01    1.16000000E+02   -3.30625023E-02   -1.89240933E-01    1.93089323E-01    2.93728761E-01    4.63765172E-01    1.55270165E+00    2.01646682E+00   
                   9.00000000E+01    1.18000000E+02   -9.56711264E-02   -1.90685492E-01    3.02660712E-01    2.81453200E-01    5.71944804E-01    2.14658002E+00    2.71852482E+00   
                   9.00000000E+01    1.20000000E+02   -1.54721636E-01   -1.68121083E-01    4.11937239E-01    2.34800052E-01    6.56008317E-01    2.82521358E+00    3.48122190E+00   
                   9.00000000E+01    1.22000000E+02   -2.01433289E-01   -1.24832731E-01    5.09874097E-01    1.55023568E-01    7.05709539E-01    3.56889829E+00    4.27460783E+00   
                   9.00000000E+01    1.24000000E+02   -2.29116723E-01   -6.70313944E-02    5.86591545E-01    4.69633335E-02    7.16128315E-01    4.35167377E+00    5.06780209E+00   
                   9.00000000E+01    1.26000000E+02   -2.34012015E-01   -2.73024667E-03    6.34487588E-01   -8.16853770E-02    6.88248523E-01    5.14274947E+00    5.83099799E+00   
                   9.00000000E+01    1.28000000E+02   -2.15591389E-01    5.95416511E-02    6.48970080E-01   -2.21406920E-01    6.28630871E-01    5.90849622E+00    6.53712709E+00   
                   9.00000000E+01    1.30000000E+02   -1.76344936E-01    1.11959724E-01    6.28748569E-01   -3.62030381E-01    5.48302369E-01    6.61482138E+00    7.16312375E+00   
                   9.00000000E+01    1.32000000E+02   -1.21153414E-01    1.48374317E-01    5.75699212E-01   -4.93852246E-01    4.61098939E-01    7.22967962E+00    7.69077855E+00   
                   9.00000000E+01    1.34000000E+02   -5.64051471E-02    1.64917799E-01    4.94376227E-01   -6.08574901E-01    3.81759063E-01    7.72544355E+00    8.10720261E+00   
                   9.00000000E+01    1.36000000E+02    1.09701385E-02    1.60213448E-01    3.91282365E-01   -6.99966907E-01    3.24070273E-01    8.08087449E+00    8.40494476E+00   
                   9.00000000E+01    1.38000000E+02    7.43948973E-02    1.35221357E-01    2.74026156E-01   -7.64204953E-01    2.99323612E-01    8.28248915E+00    8.58181276E+00   
                   9.00000000E+01    1.40000000E+02    1.28349610E-01    9.28070180E-02    1.50486992E-01   -7.99907651E-01    3.15249587E-01    8.32520274E+00    8.64045233E+00   
                   9.00000000E+01    1.42000000E+02    1.68827255E-01    3.71440208E-02    2.80858750E-02   -8.07910474E-01    3.75512311E-01    8.21222562E+00    8.58773794E+00   
                   9.00000000E+01    1.44000000E+02    1.93523641E-01   -2.69358247E-02   -8.67730289E-02   -7.90855345E-01    4.79745555E-01    7.95428307E+00    8.43402862E+00   
                   9.00000000E+01    1.46000000E+02    2.01792383E-01   -9.45483853E-02   -1.89059892E-01   -7.52676971E-01    6.24040474E-01    7.56830111E+00    8.19234158E+00   
                   9.00000000E+01    1.48000000E+02    1.94420528E-01   -1.61250608E-01   -2.75277133E-01   -6.98063426E-01    8.01748273E-01    7.07574688E+00    7.87749515E+00   
                   9.00000000E+01    1.50000000E+02    1.73292849E-01   -2.23384695E-01   -3.43443094E-01   -6.31954247E-01    1.00444425E+00    6.50082641E+00    7.50527066E+00   
                   9.00000000E+01    1.52000000E+02    1.41011529E-01   -2.78265583E-01   -3.92941751E-01   -5.59120191E-01    1.22290874E+00    5.86872891E+00    7.09163765E+00   
                   9.00000000E+01    1.54000000E+02    1.00527153E-01   -3.24226996E-01   -4.24284630E-01   -4.83848516E-01    1.44800848E+00    5.20407128E+00    6.65207976E+00   
                   9.00000000E+01    1.56000000E+02    5.48210164E-02   -3.60555680E-01   -4.38829609E-01   -4.09739639E-01    1.67139945E+00    4.52964879E+00    6.20104824E+00   
                   9.00000000E+01    1.58000000E+02    6.66159772E-03   -3.87349618E-01   -4.38494581E-01   -3.39607000E-01    1.88601247E+00    3.86554645E+00    5.75155891E+00   
                   9.00000000E+01    1.60000000E+02   -4.15573149E-02   -4.05335490E-01   -4.25494471E-01   -2.75462808E-01    2.08631748E+00    3.22861858E+00    5.31493606E+00   
                   9.00000000E+01    1.62000000E+02   -8.79012218E-02   -4.15675435E-01   -4.02119871E-01   -2.18567847E-01    2.26838938E+00    2.63230649E+00    4.90069587E+00   
                   9.00000000E+01    1.64000000E+02   -1.30914349E-01   -4.19785603E-01   -3.70566236E-01   -1.69522885E-01    2.42981481E+00    2.08673813E+00    4.51655294E+00   
                   9.00000000E+01    1.66000000E+02   -1.69589836E-01   -4.19180772E-01   -3.32815004E-01   -1.28381377E-01    2.56948641E+00    1.59904056E+00    4.16852698E+00   
                   9.00000000E+01    1.68000000E+02   -2.03307255E-01   -4.15351820E-01   -2.90562694E-01   -9.47669401E-02    2.68733060E+00    1.17379266E+00    3.86112326E+00   
                   9.00000000E+01    1.70000000E+02   -2.31752479E-01   -4.09676925E-01   -2.45190842E-01   -6.79835750E-02    2.78400896E+00    8.13550800E-01    3.59755976E+00   
                   9.00000000E+01    1.72000000E+02   -2.54832229E-01   -4.03363144E-01   -1.97768361E-01   -4.71109606E-02    2.86062483E+00    5.19390307E-01    3.38001514E+00   
                   9.00000000E+01    1.74000000E+02   -2.72592428E-01   -3.97412649E-01   -1.49077945E-01   -3.10810812E-02    2.91845721E+00    2.91417494E-01    3.20987470E+00   
                   9.00000000E+01    1.76000000E+02   -2.85146581E-01   -3.92606860E-01   -9.96591856E-02   -1.87355321E-02    2.95873586E+00    1.29219655E-01    3.08795552E+00   
                   9.00000000E+01    1.78000000E+02   -2.92617929E-01   -3.89501911E-01   -4.98624815E-02   -8.86518903E-03    2.98246459E+00    3.22309642E-02    3.01469555E+00   
                   9.00000000E+01    1.80000000E+02   -2.95097367E-01   -3.88429764E-01    9.06140584E-05   -2.35532667E-04    2.99029528E+00    8.00308727E-07    2.99029608E+00   
                   9.00000000E+01    1.82000000E+02   -2.92618014E-01   -3.89500648E-01    5.00436017E-02    8.39806152E-03    2.98245285E+00    3.23570158E-02    3.01480986E+00   
                   9.00000000E+01    1.84000000E+02   -2.85146722E-01   -3.92604177E-01    9.98397882E-02    1.82801718E-02    2.95871040E+00    1.29460610E-01    3.08817101E+00   
                   9.00000000E+01    1.86000000E+02   -2.72592589E-01   -3.97408240E-01    1.49257046E-01    3.06451634E-02    2.91841428E+00    2.91750812E-01    3.21016509E+00   
                   9.00000000E+01    1.88000000E+02   -2.54832416E-01   -4.03356561E-01    1.97944046E-01    4.67018537E-02    2.86055929E+00    5.19781638E-01    3.38034093E+00   
                   9.00000000E+01    1.90000000E+02   -2.31752805E-01   -4.09667605E-01    2.45359951E-01    6.76081174E-02    2.78391490E+00    8.13953520E-01    3.59786842E+00   
                   9.00000000E+01    1.92000000E+02   -2.03308012E-01   -4.15339132E-01    2.90720579E-01    9.44311277E-02    2.68720203E+00    1.17414755E+00    3.86134957E+00   
                   9.00000000E+01    1.94000000E+02   -1.69591579E-01   -4.19164087E-01    3.32955394E-01    1.28089954E-01    2.56931807E+00    1.59927588E+00    4.16859395E+00   
                   9.00000000E+01    1.96000000E+02   -1.30917955E-01   -4.19764401E-01    3.70681241E-01    1.69278848E-01    2.42960300E+00    2.08677038E+00    4.51637338E+00   
                   9.00000000E+01    1.98000000E+02   -8.79079271E-02   -4.15649447E-01    4.02200182E-01    2.18371882E-01    2.26813271E+00    2.63204223E+00    4.90017494E+00   
                   9.00000000E+01    2.00000000E+02   -4.15686938E-02   -4.05304867E-01    4.25529788E-01    2.75312722E-01    2.08601742E+00    3.22795750E+00    5.31397492E+00   
                   9.00000000E+01    2.02000000E+02    6.64372201E-03   -3.87315114E-01    4.38474301E-01    3.39497212E-01    1.88567359E+00    3.86438603E+00    5.75005962E+00   
                   9.00000000E+01    2.04000000E+02    5.47947522E-02   -3.60518818E-01    4.38743771E-01    4.09660832E-01    1.67102925E+00    4.52789070E+00    6.19891995E+00   
                   9.00000000E+01    2.06000000E+02    1.00490815E-01   -3.24190188E-01    4.24125101E-01    4.83787564E-01    1.44761677E+00    5.20162931E+00    6.64924608E+00   
                   9.00000000E+01    2.08000000E+02    1.40963999E-01   -2.78232144E-01    3.92703558E-01    5.59060480E-01    1.22250649E+00    5.86553827E+00    7.08804476E+00   
                   9.00000000E+01    2.10000000E+02    1.73233990E-01   -2.23358716E-01    3.43125777E-01    6.31876482E-01    1.00404209E+00    6.49685365E+00    7.50089575E+00   
                   9.00000000E+01    2.12000000E+02    1.94351587E-01   -1.61236635E-01    2.74885931E-01    6.97946981E-01    8.01354837E-01    7.07099952E+00    7.87235436E+00   
                   9.00000000E+01    2.14000000E+02    2.01716310E-01   -9.45508957E-02    1.88606534E-01    7.52501775E-01    6.23660701E-01    7.56283574E+00    8.18649644E+00   
                   9.00000000E+01    2.16000000E+02    1.93445211E-01   -2.69585206E-02    8.62758849E-02    7.90604181E-01    4.79379537E-01    7.94821055E+00    8.42759008E+00   
                   9.00000000E+01    2.18000000E+02    1.68752895E-01    3.70990418E-02   -2.86024907E-02    8.07571484E-01    3.75154900E-01    8.20571190E+00    8.58086680E+00   
                   9.00000000E+01    2.20000000E+02    1.28286849E-01    9.27400825E-02   -1.50994513E-01    7.99476705E-01    3.14891111E-01    8.31846416E+00    8.63335527E+00   
                   9.00000000E+01    2.22000000E+02    7.43514068E-02    1.35135856E-01   -2.74494452E-01    7.63687479E-01    2.98951838E-01    8.27578154E+00    8.57473338E+00   
                   9.00000000E+01    2.24000000E+02    1.09524233E-02    1.60116098E-01   -3.91683256E-01    6.99378739E-01    3.23673519E-01    8.07447612E+00    8.39814964E+00   
                   9.00000000E+01    2.26000000E+02   -5.63932708E-02    1.64818323E-01   -4.94687453E-01    6.07941765E-01    3.81330041E-01    7.71963289E+00    8.10096293E+00   
                   9.00000000E+01    2.28000000E+02   -1.21112287E-01    1.48284428E-01   -5.75908302E-01    4.93207636E-01    4.60638635E-01    7.22470988E+00    7.68534851E+00   
                   9.00000000E+01    2.30000000E+02   -1.76280149E-01    1.11891376E-01   -6.28855928E-01    3.61411826E-01    5.47823023E-01    6.61089471E+00    7.15871773E+00   
                   9.00000000E+01    2.32000000E+02   -2.15514130E-01    5.95047089E-02   -6.48990590E-01    2.20850939E-01    6.28157059E-01    5.90574083E+00    6.53389789E+00   
                   9.00000000E+01    2.34000000E+02   -2.33938373E-01   -2.73060009E-03   -6.34450141E-01    8.12217500E-02    6.87815501E-01    5.14120324E+00    5.82901874E+00   
                   9.00000000E+01    2.36000000E+02   -2.29065789E-01   -6.69970322E-02   -5.86536208E-01   -4.73171032E-02    7.15777181E-01    4.35127712E+00    5.06705430E+00   
                   9.00000000E+01    2.38000000E+02   -2.01424116E-01   -1.24774166E-01   -5.09846981E-01   -1.55266567E-01    7.05479401E-01    3.56949831E+00    4.27497771E+00   
                   9.00000000E+01    2.40000000E+02   -1.54769401E-01   -1.68057711E-01   -4.11983648E-01   -2.34950066E-01    6.55926369E-01    2.82657963E+00    3.48250600E+00   
                   9.00000000E+01    2.42000000E+02   -9.57831265E-02   -1.90644107E-01   -3.02817549E-01   -2.81545906E-01    5.72015949E-01    2.14842922E+00    2.72044517E+00   
                   9.00000000E+01    2.44000000E+02   -3.32347722E-02   -1.89252416E-01   -1.93378039E-01   -2.93813753E-01    4.63963311E-01    1.55473132E+00    2.01869463E+00   
                   9.00000000E+01    2.46000000E+02    2.33034538E-02   -1.64252387E-01   -9.44943936E-02   -2.74368569E-01    3.45850367E-01    1.05818017E+00    1.40403053E+00   
                   9.00000000E+01    2.48000000E+02    6.49998599E-02   -1.19814561E-01   -1.53839059E-02   -2.29415988E-01    2.33489586E-01    6.64363409E-01    8.97852995E-01   
                   9.00000000E+01    2.50000000E+02    8.52975692E-02   -6.33925106E-02    3.75914054E-02   -1.67947959E-01    1.41928180E-01    3.72211258E-01    5.14139438E-01   
                   9.00000000E+01    2.52000000E+02    8.11440049E-02   -4.57383281E-03    6.17856579E-02   -1.00492587E-01    8.30042642E-02    1.74876472E-01    2.57880736E-01   
                   9.00000000E+01    2.54000000E+02    5.36521314E-02    4.65298070E-02    5.85840751E-02   -3.75991554E-02    6.33794220E-02    6.08939974E-02    1.24273419E-01   
                   9.00000000E+01    2.56000000E+02    8.02367492E-03    8.10728102E-02    3.30950962E-02    1.17004011E-02    8.34052626E-02    1.54840906E-02    9.88893532E-02   
                   9.00000000E+01    2.58000000E+02   -4.72959089E-02    9.31060651E-02   -6.74906758E-03    4.11939687E-02    1.37044344E-01    2.18968124E-02    1.58941156E-01   
                   9.00000000E+01    2.60000000E+02   -1.02103722E-01    8.07184454E-02   -5.15425979E-02    4.83269287E-02    2.12882328E-01    6.27329738E-02    2.75615302E-01   
                   9.00000000E+01    2.62000000E+02   -1.46300064E-01    4.64435639E-02   -9.19780104E-02    3.44237290E-02    2.96072657E-01    1.21201985E-01    4.17274643E-01   
                   9.00000000E+01    2.64000000E+02   -1.71767272E-01   -3.17250554E-03   -1.20363913E-01    4.25269735E-03    3.70884625E-01    1.82282205E-01    5.53166830E-01   
                   9.00000000E+01    2.66000000E+02   -1.73894989E-01   -5.87766432E-02   -1.31818637E-01   -3.49840917E-02    4.23413313E-01    2.33734991E-01    6.57148304E-01   
                   9.00000000E+01    2.68000000E+02   -1.52444515E-01   -1.09960176E-01   -1.24929674E-01   -7.50450623E-02    4.43977041E-01    2.66899469E-01    7.10876510E-01   
                   9.00000000E+01    2.70000000E+02   -1.11576781E-01   -1.47213956E-01   -1.01771531E-01   -1.08164438E-01    4.28781241E-01    2.77176313E-01    7.05957554E-01   
                   9.00000000E+01    2.72000000E+02   -5.90391573E-02   -1.63701410E-01   -6.72991042E-02   -1.28406043E-01    3.80557126E-01    2.64110947E-01    6.44668073E-01   
                   9.00000000E+01    2.74000000E+02   -4.67786281E-03   -1.56502932E-01   -2.82538103E-02   -1.32610807E-01    3.08065205E-01    2.31018949E-01    5.39084154E-01   
                   9.00000000E+01    2.76000000E+02    4.14228309E-02   -1.27096850E-01    8.19021746E-03   -1.20779914E-01    2.24554260E-01    1.84158492E-01    4.08712753E-01   
                   9.00000000E+01    2.78000000E+02    7.08048820E-02   -8.10010377E-02    3.57712243E-02   -9.58521117E-02    1.45449450E-01    1.31534813E-01    2.76984262E-01   
                   9.00000000E+01    2.80000000E+02    7.81449404E-02   -2.66692180E-02    5.02227106E-02   -6.29542959E-02    8.56759931E-02    8.15000013E-02    1.67175994E-01   
                   9.00000000E+01    2.82000000E+02    6.21318504E-02    2.61198502E-02    4.99068951E-02   -2.83032049E-02    5.70841637E-02    4.13655966E-02    9.84497603E-02   
                   9.00000000E+01    2.84000000E+02    2.55745728E-02    6.80534540E-02    3.59124634E-02    2.00736771E-03    6.64174329E-02    1.62575479E-02    8.26749808E-02   
                   9.00000000E+01    2.86000000E+02   -2.52409954E-02    9.19118349E-02    1.16421038E-02    2.30947570E-02    1.14164135E-01    8.40572550E-03    1.22569861E-01   
                   9.00000000E+01    2.88000000E+02   -8.17843527E-02    9.37391501E-02   -1.79867188E-02    3.20566017E-02    1.94473490E-01    1.69790236E-02    2.11452513E-01   
                   9.00000000E+01    2.90000000E+02   -1.34838870E-01    7.33736024E-02   -4.75401513E-02    2.83071815E-02    2.96129117E-01    3.84702159E-02    3.34599332E-01   
                   9.00000000E+01    2.92000000E+02   -1.76082104E-01    3.42866297E-02   -7.20582632E-02    1.34630603E-02    4.04391844E-01    6.75272433E-02    4.71919087E-01   
                   9.00000000E+01    2.94000000E+02   -1.99405203E-01   -1.71862203E-02   -8.78546234E-02   -9.15049821E-03    5.03381174E-01    9.80449154E-02    6.01426089E-01   
                   9.00000000E+01    2.96000000E+02   -2.01762575E-01   -7.30359820E-02   -9.30011188E-02   -3.52364734E-02    5.78585756E-01    1.24291674E-01    7.02877430E-01   
                   9.00000000E+01    2.98000000E+02   -1.83449052E-01   -1.24948044E-01   -8.74500750E-02   -6.03416133E-02    6.19089391E-01    1.41857057E-01    7.60946447E-01   
                   9.00000000E+01    3.00000000E+02   -1.47815180E-01   -1.65597289E-01   -7.28209336E-02   -8.05936835E-02    6.19167570E-01    1.48260933E-01    7.67428503E-01   
                   9.00000000E+01    3.02000000E+02   -1.00529092E-01   -1.89662754E-01   -5.19374582E-02   -9.32413466E-02    5.79033963E-01    1.43149161E-01    7.22183124E-01   
                   9.00000000E+01    3.04000000E+02   -4.85585490E-02   -1.94428562E-01   -2.82340669E-02   -9.69327087E-02    5.04670449E-01    1.28090430E-01    6.32760879E-01   
                   9.00000000E+01    3.06000000E+02    9.28583120E-04   -1.79926371E-01   -5.15408144E-03   -9.17268525E-02    4.06828224E-01    1.06064943E-01    5.12893167E-01   
                   9.00000000E+01    3.08000000E+02    4.15615760E-02   -1.48657999E-01    1.43573925E-02   -7.88816860E-02    2.99413449E-01    8.07823494E-02    3.80195798E-01   
                   9.00000000E+01    3.10000000E+02    6.85226185E-02   -1.05000449E-01    2.81989561E-02   -6.04930665E-02    1.97548919E-01    5.59780568E-02    2.53526976E-01   
                   9.00000000E+01    3.12000000E+02    7.89833756E-02   -5.44308550E-02    3.52709512E-02   -3.90715494E-02    1.15624327E-01    3.48167127E-02    1.50441040E-01   
                   9.00000000E+01    3.14000000E+02    7.22086117E-02   -2.71436166E-03    3.54575881E-02   -1.71362712E-02    6.56146930E-02    1.94890880E-02    8.51037810E-02   
                   9.00000000E+01    3.16000000E+02    4.93677237E-02    4.48216231E-02    2.94718965E-02    3.11428834E-03    5.58719693E-02    1.10369362E-02    6.69089055E-02   
                   9.00000000E+01    3.18000000E+02    1.31322631E-02    8.38396782E-02    1.86163450E-02    2.00208571E-02    9.04973207E-02    9.39214335E-03    9.98894641E-02   
                   9.00000000E+01    3.20000000E+02   -3.28455202E-02    1.11327169E-01    4.51349262E-03    3.25631731E-02    1.69301268E-01    1.35808771E-02    1.82882145E-01   
                   9.00000000E+01    3.22000000E+02   -8.44799615E-02    1.25710731E-01   -1.11471908E-02    4.03538027E-02    2.88273193E-01    2.20249427E-02    3.10298136E-01   