##File Type: Far field
##File Format: 5
##Source: Thin_wire_XY_rad_theta450.08
##Date: 2020-09-16 11:26:48
** File exported by POSTFEKO version 2018-319328 (x64)

#Configuration Name: StandardConfiguration1
#Request Name: FarField1
#Frequency: 3.00000000E+08
#Coordinate System: Spherical
#No. of Theta Samples: 1
#No. of Phi Samples: 181
#Result Type: RCS
#Incident Wave Direction: (4.50000000E+01, 0.00000000E+00)
#No. of Header Lines: 1
#                 "Theta"           "Phi"             "Re(Etheta)"      "Im(Etheta)"      "Re(Ephi)"        "Im(Ephi)"        "RCS(Theta)"      "RCS(Phi)"        "RCS(Total)"      
                   9.00000000E+01    0.00000000E+00   -2.29577483E-17    1.57822860E-17    0.00000000E+00    0.00000000E+00    9.75324729E-33    0.00000000E+00    9.75324729E-33   
                   9.00000000E+01    2.00000000E+00   -2.28909943E-17    1.58493818E-17    1.30547213E-02   -9.03889362E-03    9.74145707E-33    3.16832569E-03    3.16832569E-03   
                   9.00000000E+01    4.00000000E+00   -2.26888791E-17    1.60483871E-17    2.59105071E-02   -1.83271217E-02    9.70545992E-33    1.26573231E-02    1.26573231E-02   
                   9.00000000E+01    6.00000000E+00   -2.23460018E-17    1.63723581E-17    3.83565193E-02   -2.81028649E-02    9.64340649E-33    2.84124834E-02    2.84124834E-02   
                   9.00000000E+01    8.00000000E+00   -2.18538661E-17    1.68094315E-17    5.01591248E-02   -3.85811083E-02    9.55230717E-33    5.03212736E-02    5.03212736E-02   
                   9.00000000E+01    1.00000000E+01   -2.12016575E-17    1.73424402E-17    6.10531011E-02   -4.99399519E-02    9.42817728E-33    7.81814229E-02    7.81814229E-02   
                   9.00000000E+01    1.20000000E+01   -2.03773627E-17    1.79484799E-17    7.07361856E-02   -6.23047752E-02    9.26625122E-33    1.11658398E-01    1.11658398E-01   
                   9.00000000E+01    1.40000000E+01   -1.93692492E-17    1.85985337E-17    7.88683923E-02   -7.57301660E-02    9.06127395E-33    1.50234496E-01    1.50234496E-01   
                   9.00000000E+01    1.60000000E+01   -1.81677001E-17    1.92572889E-17    8.50776597E-02   -9.01801033E-02    8.80787603E-33    1.93153400E-01    1.93153400E-01   
                   9.00000000E+01    1.80000000E+01   -1.67673736E-17    1.98833089E-17    8.89734077E-02   -1.05507624E-01    8.50103400E-33    2.39365810E-01    2.39365810E-01   
                   9.00000000E+01    2.00000000E+01   -1.51695971E-17    2.04297360E-17    9.01693750E-02   -1.21436087E-01    8.13660922E-33    2.87483870E-01    2.87483870E-01   
                   9.00000000E+01    2.20000000E+01   -1.33848471E-17    2.08456974E-17    8.83165541E-02   -1.37545102E-01    7.71194688E-33    3.35754182E-01    3.35754182E-01   
                   9.00000000E+01    2.40000000E+01   -1.14350837E-17    2.10785575E-17    8.31460510E-02   -1.53265063E-01    7.22650158E-33    3.82060962E-01    3.82060962E-01   
                   9.00000000E+01    2.60000000E+01   -9.35563046E-18    2.10770920E-17    7.45201941E-02   -1.67884890E-01    6.68243935E-33    4.23971695E-01    4.23971695E-01   
                   9.00000000E+01    2.80000000E+01   -7.19622449E-18    2.07955561E-17    6.24882283E-02   -1.80577671E-01    6.08514936E-33    4.58836817E-01    4.58836817E-01   
                   9.00000000E+01    3.00000000E+01   -5.02082472E-18    2.01984674E-17    4.73405803E-02   -1.90448227E-01    5.44358543E-33    4.83951763E-01    4.83951763E-01   
                   9.00000000E+01    3.20000000E+01   -2.90579061E-18    1.92657449E-17    2.96532764E-02   -1.96604826E-01    4.77035195E-33    4.96783494E-01    4.96783494E-01   
                   9.00000000E+01    3.40000000E+01   -9.36139222E-19    1.79976516E-17    1.03120978E-02   -1.98254212E-01    4.08145439E-33    4.95254137E-01    4.95254137E-01   
                   9.00000000E+01    3.60000000E+01    8.00219531E-19    1.64188110E-17   -9.49487675E-03   -1.94814773E-01    3.39565583E-33    4.78061792E-01    4.78061792E-01   
                   9.00000000E+01    3.80000000E+01    2.22008419E-18    1.45804595E-17   -2.83268592E-02   -1.86037369E-01    2.73341900E-33    4.45004258E-01    4.45004258E-01   
                   9.00000000E+01    4.00000000E+01    3.25385355E-18    1.25600983E-17   -4.45893022E-02   -1.72117771E-01    2.11546847E-33    3.97257318E-01    3.97257318E-01   
                   9.00000000E+01    4.20000000E+01    3.85477128E-18    1.04578694E-17   -5.66833090E-02   -1.53779979E-01    1.56107366E-33    3.37548792E-01    3.37548792E-01   
                   9.00000000E+01    4.40000000E+01    4.00723683E-18    8.38933274E-18   -6.31977093E-02   -1.32307282E-01    1.08622263E-33    2.70166504E-01    2.70166504E-01   
                   9.00000000E+01    4.60000000E+01    3.73268047E-18    6.47485101E-18   -6.31252011E-02   -1.09499400E-01    7.01914725E-34    2.00746635E-01    2.00746635E-01   
                   9.00000000E+01    4.80000000E+01    3.09151628E-18    4.82645420E-18   -5.60729294E-02   -8.75406761E-02    4.12832080E-34    1.35811595E-01    1.35811595E-01   
                   9.00000000E+01    5.00000000E+01    2.18000963E-18    3.53374139E-18   -4.24291201E-02   -6.87765485E-02    2.16641342E-34    8.20639779E-02    8.20639779E-02   
                   9.00000000E+01    5.20000000E+01    1.12155365E-18    2.65094610E-18   -2.34438731E-02   -5.54128143E-02    1.04117380E-34    4.54927142E-02    4.54927142E-02   
                   9.00000000E+01    5.40000000E+01    5.27954710E-20    2.18756281E-18   -1.18673779E-03   -4.91720862E-02    6.01705270E-35    3.04018507E-02    3.04018507E-02   
                   9.00000000E+01    5.60000000E+01   -8.93850771E-19    2.10476093E-18    2.16419667E-02   -5.09605938E-02    6.57093983E-35    3.85204101E-02    3.85204101E-02   
                   9.00000000E+01    5.80000000E+01   -1.60873974E-18    2.31911076E-18    4.20451310E-02   -6.06109947E-02    1.00107708E-34    6.83797262E-02    6.83797262E-02   
                   9.00000000E+01    6.00000000E+01   -2.02132576E-18    2.71394425E-18    5.71763044E-02   -7.67680827E-02    1.43900667E-34    1.15138972E-01    1.15138972E-01   
                   9.00000000E+01    6.20000000E+01   -2.11093778E-18    3.15714283E-18    6.48365970E-02   -9.69703606E-02    1.81252419E-34    1.70991047E-01    1.70991047E-01   
                   9.00000000E+01    6.40000000E+01   -1.90930645E-18    3.52259083E-18    6.39312225E-02   -1.17950441E-01    2.01741737E-34    2.26188486E-01    2.26188486E-01   
                   9.00000000E+01    6.60000000E+01   -1.49356449E-18    3.71134571E-18    5.47847882E-02   -1.36134254E-01    2.01122523E-34    2.70603072E-01    2.70603072E-01   
                   9.00000000E+01    6.80000000E+01   -9.70400000E-19    3.66813659E-18    3.92247673E-02   -1.48270614E-01    1.80916809E-34    2.95595688E-01    2.95595688E-01   
                   9.00000000E+01    7.00000000E+01   -4.54136871E-19    3.38936707E-18    2.03769903E-02   -1.52079922E-01    1.46951759E-34    2.95856653E-01    2.95856653E-01   
                   9.00000000E+01    7.20000000E+01   -4.32170532E-20    2.92039403E-18    2.17219223E-03   -1.46785973E-01    1.07198291E-34    2.70815847E-01    2.70815847E-01   
                   9.00000000E+01    7.40000000E+01    1.99655326E-19    2.34222046E-18   -1.13711295E-02   -1.33398355E-01    6.94399910E-35    2.25244953E-01    2.25244953E-01   
                   9.00000000E+01    7.60000000E+01    2.58927695E-19    1.75034751E-18   -1.69600290E-02   -1.14649553E-01    3.93422898E-35    1.68793534E-01    1.68793534E-01   
                   9.00000000E+01    7.80000000E+01    1.66176531E-19    1.23069496E-18   -1.27677484E-02   -9.45572968E-02    1.93801673E-35    1.14405467E-01    1.14405467E-01   
                   9.00000000E+01    8.00000000E+01   -1.15871703E-20    8.38560440E-19    1.07319283E-03   -7.76666805E-02    8.83815307E-36    7.58162439E-02    7.58162439E-02   
                   9.00000000E+01    8.20000000E+01   -1.92455703E-19    5.86121779E-19    2.23638927E-02   -6.81089954E-02    4.78248341E-36    6.45783140E-02    6.45783140E-02   
                   9.00000000E+01    8.40000000E+01   -3.03645971E-19    4.41966359E-19    4.71809249E-02   -6.86733353E-02    3.61327311E-36    8.72365825E-02    8.72365825E-02   
                   9.00000000E+01    8.60000000E+01   -3.02423575E-19    3.42989767E-19    7.06303013E-02   -8.01044381E-02    2.62765322E-36    1.43323987E-01    1.43323987E-01   
                   9.00000000E+01    8.80000000E+01   -1.87902667E-19    2.15552884E-19    8.78755957E-02   -1.00806649E-01    1.02755788E-36    2.24738238E-01    2.24738238E-01   
                   9.00000000E+01    9.00000000E+01   -3.57040287E-34    4.76372083E-34    9.52259930E-02   -1.27052902E-01    4.45362388E-66    3.16803603E-01    3.16803603E-01   
                   9.00000000E+01    9.20000000E+01    1.94669646E-19   -3.28623772E-19    9.10402788E-02   -1.53686003E-01    1.83330599E-36    4.00964233E-01    4.00964233E-01   
                   9.00000000E+01    9.40000000E+01    3.26402611E-19   -7.50097834E-19    7.62305476E-02   -1.75183551E-01    8.40923205E-36    4.58677216E-01    4.58677216E-01   
                   9.00000000E+01    9.60000000E+01    3.49018399E-19   -1.20263349E-18    5.42309547E-02   -1.86866830E-01    1.97058428E-35    4.75765415E-01    4.75765415E-01   
                   9.00000000E+01    9.80000000E+01    2.61732311E-19   -1.60057902E-18    3.04140290E-02   -1.85991774E-01    3.30540411E-35    4.46331762E-01    4.46331762E-01   
                   9.00000000E+01    1.00000000E+02    1.19433143E-19   -1.86223893E-18    1.10617855E-02   -1.72478821E-01    4.37585919E-35    3.75373910E-01    3.75373910E-01   
                   9.00000000E+01    1.02000000E+02    2.73390491E-20   -1.94077345E-18    2.10052586E-03   -1.49114360E-01    4.73419038E-35    2.79469858E-01    2.79469858E-01   
                   9.00000000E+01    1.04000000E+02    1.20028749E-19   -1.84991460E-18    7.86200587E-03   -1.21171300E-01    4.31854754E-35    1.85282275E-01    1.85282275E-01   
                   9.00000000E+01    1.06000000E+02    5.28976108E-19   -1.67718414E-18    3.01271995E-02   -9.55220102E-02    3.88647982E-35    1.26067119E-01    1.26067119E-01   
                   9.00000000E+01    1.08000000E+02    1.34584189E-18   -1.58017790E-18    6.76452251E-02   -7.94235123E-02    5.41390986E-35    1.36772011E-01    1.36772011E-01   
                   9.00000000E+01    1.10000000E+02    2.59008076E-18   -1.76551403E-18    1.16216176E-01   -7.92181051E-02    1.23471605E-34    2.48584271E-01    2.48584271E-01   
                   9.00000000E+01    1.12000000E+02    4.18860316E-18   -2.45416734E-18    1.69308516E-01   -9.92004766E-02    2.96155850E-34    4.83882026E-01    4.83882026E-01   
                   9.00000000E+01    1.14000000E+02    5.97256212E-18   -3.84008534E-18    2.19076948E-01   -1.40856497E-01    6.33568179E-34    8.52443041E-01    8.52443041E-01   
                   9.00000000E+01    1.16000000E+02    7.69255082E-18   -6.05046560E-18    2.57577393E-01   -2.02593807E-01    1.20365061E-33    1.34950711E+00    1.34950711E+00   
                   9.00000000E+01    1.18000000E+02    9.04956594E-18   -9.11560486E-18    2.77953744E-01   -2.79982103E-01    2.07331161E-33    1.95593374E+00    1.95593374E+00   
                   9.00000000E+01    1.20000000E+02    9.73594276E-18   -1.29540529E-17    2.75396098E-01   -3.66425289E-01    3.29987952E-33    2.64032645E+00    2.64032645E+00   
                   9.00000000E+01    1.22000000E+02    9.47875169E-18   -1.73755504E-17    2.47731405E-01   -4.54117763E-01    4.92295718E-33    3.36268276E+00    3.36268276E+00   
                   9.00000000E+01    1.24000000E+02    8.07810845E-18   -2.21007198E-17    1.95587631E-01   -5.35103910E-01    6.95796989E-33    4.07892723E+00    4.07892723E+00   
                   9.00000000E+01    1.26000000E+02    5.43431785E-18   -2.67934987E-17    1.22152719E-01   -6.02264869E-01    9.39239924E-33    4.74561772E+00    4.74561772E+00   
                   9.00000000E+01    1.28000000E+02    1.56025801E-18   -3.11004083E-17    3.26141250E-02   -6.50092866E-01    1.21852301E-32    5.32417539E+00    5.32417539E+00   
                   9.00000000E+01    1.30000000E+02   -3.42172590E-18   -3.46901854E-17   -6.65964119E-02   -6.75168598E-01    1.52696127E-32    5.78414605E+00    5.78414605E+00   
                   9.00000000E+01    1.32000000E+02   -9.29653127E-18   -3.72879873E-17   -1.68617498E-01   -6.76317537E-01    1.85582611E-32    6.10521122E+00    6.10521122E+00   
                   9.00000000E+01    1.34000000E+02   -1.57828167E-17   -3.86999776E-17   -2.66911001E-01   -6.54474416E-01    2.19507548E-32    6.27788536E+00    6.27788536E+00   
                   9.00000000E+01    1.36000000E+02   -2.25645749E-17   -3.88261630E-17   -3.55863530E-01   -6.12323322E-01    2.53417322E-32    6.30302386E+00    6.30302386E+00   
                   9.00000000E+01    1.38000000E+02   -2.93229916E-17   -3.76614143E-17   -4.31186204E-01   -5.53800325E-01    2.86289564E-32    6.19039953E+00    6.19039953E+00   
                   9.00000000E+01    1.40000000E+02   -3.57645795E-17   -3.52863029E-17   -4.90101236E-01   -4.83547154E-01    3.17203886E-32    5.95667420E+00    5.95667420E+00   
                   9.00000000E+01    1.42000000E+02   -4.16428043E-17   -3.18505019E-17   -5.31335639E-01   -4.06392102E-01    3.45396451E-32    5.62310026E+00    5.62310026E+00   
                   9.00000000E+01    1.44000000E+02   -4.67718253E-17   -2.75519737E-17   -5.54963606E-01   -3.26913533E-01    3.70295114E-32    5.21324759E+00    5.21324759E+00   
                   9.00000000E+01    1.46000000E+02   -5.10322703E-17   -2.26150623E-17   -5.62149037E-01   -2.49117577E-01    3.91534638E-32    4.75098164E+00    4.75098164E+00   
                   9.00000000E+01    1.48000000E+02   -5.43699845E-17   -1.72700887E-17   -5.54839763E-01   -1.76239372E-01    4.08953830E-32    4.25883698E+00    4.25883698E+00   
                   9.00000000E+01    1.50000000E+02   -5.67893388E-17   -1.17362861E-17   -5.35457898E-01   -1.10659627E-01    4.22578068E-32    3.75685113E+00    3.75685113E+00   
                   9.00000000E+01    1.52000000E+02   -5.83429584E-17   -6.20909303E-18   -5.06619562E-01   -5.39164979E-02    4.32591481E-32    3.26185746E+00    3.26185746E+00   
                   9.00000000E+01    1.54000000E+02   -5.91196919E-17   -8.52081210E-19   -4.70904760E-01   -6.78706342E-03    4.39303228E-32    2.78718779E+00    2.78718779E+00   
                   9.00000000E+01    1.56000000E+02   -5.92323816E-17    4.20679060E-18   -4.30686716E-01    3.05881476E-02    4.43111857E-32    2.34270678E+00    2.34270678E+00   
                   9.00000000E+01    1.58000000E+02   -5.88066082E-17    8.87528582E-18   -3.88020644E-01    5.85613458E-02    4.44471004E-32    1.93508852E+00    1.93508852E+00   
                   9.00000000E+01    1.60000000E+02   -5.79711689E-17    1.30942473E-17   -3.44585556E-01    7.78333190E-02    4.43858753E-32    1.56824826E+00    1.56824826E+00   
                   9.00000000E+01    1.62000000E+02   -5.68506557E-17    1.68331198E-17   -3.01668984E-01    8.93222794E-02    4.41752032E-32    1.24385261E+00    1.24385261E+00   
                   9.00000000E+01    1.64000000E+02   -5.55601883E-17    2.00844745E-17   -2.60183224E-01    9.40537369E-02    4.38606627E-32    9.61847795E-01    9.61847795E-01   
                   9.00000000E+01    1.66000000E+02   -5.42021229E-17    2.28582216E-17   -2.20702117E-01    9.30749135E-02    4.34842721E-32    7.20962389E-01    7.20962389E-01   
                   9.00000000E+01    1.68000000E+02   -5.28644205E-17    2.51760225E-17   -1.83508902E-01    8.73938312E-02    4.30835386E-32    5.19156967E-01    5.19156967E-01   
                   9.00000000E+01    1.70000000E+02   -5.16202901E-17    2.70662373E-17   -1.48647755E-01    7.79409689E-02    4.26909210E-32    3.54006596E-01    3.54006596E-01   
                   9.00000000E+01    1.72000000E+02   -5.05287148E-17    2.85595944E-17   -1.15973810E-01    6.55501527E-02    4.23336075E-32    2.23012201E-01    2.23012201E-01   
                   9.00000000E+01    1.74000000E+02   -4.96354984E-17    2.96856522E-17   -8.51984606E-02    5.09549002E-02    4.20335125E-32    1.23843839E-01    1.23843839E-01   
                   9.00000000E+01    1.76000000E+02   -4.89745230E-17    3.04700419E-17   -5.59284891E-02    3.47965290E-02    4.18074022E-32    5.45228975E-02    5.45228975E-02   
                   9.00000000E+01    1.78000000E+02   -4.85689686E-17    3.09324362E-17   -2.76988558E-02    1.76407512E-02    4.16670730E-32    1.35518595E-02    1.35518595E-02   
                   9.00000000E+01    1.80000000E+02   -4.84323102E-17    3.10851684E-17   -9.68646203E-17    6.21703369E-17    4.16195225E-32    1.66478090E-31    2.08097612E-31   
                   9.00000000E+01    1.82000000E+02   -4.85689650E-17    3.09324365E-17    2.76988538E-02   -1.76407513E-02    4.16670689E-32    1.35518582E-02    1.35518582E-02   
                   9.00000000E+01    1.84000000E+02   -4.89745162E-17    3.04700425E-17    5.59284813E-02   -3.47965296E-02    4.18073942E-32    5.45228871E-02    5.45228871E-02   
                   9.00000000E+01    1.86000000E+02   -4.96354886E-17    2.96856529E-17    8.51984438E-02   -5.09549015E-02    4.20335009E-32    1.23843804E-01    1.23843804E-01   
                   9.00000000E+01    1.88000000E+02   -5.05287026E-17    2.85595954E-17    1.15973782E-01   -6.55501550E-02    4.23335928E-32    2.23012124E-01    2.23012124E-01   
                   9.00000000E+01    1.90000000E+02   -5.16202763E-17    2.70662384E-17    1.48647716E-01   -7.79409722E-02    4.26909039E-32    3.54006454E-01    3.54006454E-01   
                   9.00000000E+01    1.92000000E+02   -5.28644058E-17    2.51760237E-17    1.83508851E-01   -8.73938353E-02    4.30835198E-32    5.19156740E-01    5.19156740E-01   
                   9.00000000E+01    1.94000000E+02   -5.42021080E-17    2.28582227E-17    2.20702056E-01   -9.30749177E-02    4.34842524E-32    7.20962062E-01    7.20962062E-01   
                   9.00000000E+01    1.96000000E+02   -5.55601739E-17    2.00844753E-17    2.60183156E-01   -9.40537404E-02    4.38606430E-32    9.61847361E-01    9.61847361E-01   
                   9.00000000E+01    1.98000000E+02   -5.68506424E-17    1.68331201E-17    3.01668913E-01   -8.93222810E-02    4.41751843E-32    1.24385207E+00    1.24385207E+00   
                   9.00000000E+01    2.00000000E+02   -5.79711571E-17    1.30942469E-17    3.44585486E-01   -7.78333170E-02    4.43858581E-32    1.56824765E+00    1.56824765E+00   
                   9.00000000E+01    2.02000000E+02   -5.88065984E-17    8.87528473E-18    3.88020579E-01   -5.85613386E-02    4.44470856E-32    1.93508787E+00    1.93508787E+00   
                   9.00000000E+01    2.04000000E+02   -5.92323738E-17    4.20678874E-18    4.30686659E-01   -3.05881340E-02    4.43111738E-32    2.34270615E+00    2.34270615E+00   
                   9.00000000E+01    2.06000000E+02   -5.91196862E-17   -8.52083780E-19    4.70904715E-01    6.78708388E-03    4.39303144E-32    2.78718726E+00    2.78718726E+00   
                   9.00000000E+01    2.08000000E+02   -5.83429548E-17   -6.20909614E-18    5.06619531E-01    5.39165249E-02    4.32591434E-32    3.26185710E+00    3.26185710E+00   
                   9.00000000E+01    2.10000000E+02   -5.67893374E-17   -1.17362895E-17    5.35457885E-01    1.10659660E-01    4.22578057E-32    3.75685104E+00    3.75685104E+00   
                   9.00000000E+01    2.12000000E+02   -5.43699852E-17   -1.72700922E-17    5.54839770E-01    1.76239408E-01    4.08953855E-32    4.25883724E+00    4.25883724E+00   
                   9.00000000E+01    2.14000000E+02   -5.10322731E-17   -2.26150656E-17    5.62149068E-01    2.49117613E-01    3.91534694E-32    4.75098232E+00    4.75098232E+00   
                   9.00000000E+01    2.16000000E+02   -4.67718304E-17   -2.75519767E-17    5.54963666E-01    3.26913569E-01    3.70295195E-32    5.21324873E+00    5.21324873E+00   
                   9.00000000E+01    2.18000000E+02   -4.16428117E-17   -3.18505046E-17    5.31335732E-01    4.06392137E-01    3.45396550E-32    5.62310187E+00    5.62310187E+00   
                   9.00000000E+01    2.20000000E+02   -3.57645890E-17   -3.52863056E-17    4.90101366E-01    4.83547191E-01    3.17203995E-32    5.95667626E+00    5.95667626E+00   
                   9.00000000E+01    2.22000000E+02   -2.93230030E-17   -3.76614173E-17    4.31186372E-01    5.53800369E-01    2.86289677E-32    6.19040196E+00    6.19040196E+00   
                   9.00000000E+01    2.24000000E+02   -2.25645876E-17   -3.88261667E-17    3.55863731E-01    6.12323380E-01    2.53417430E-32    6.30302656E+00    6.30302656E+00   
                   9.00000000E+01    2.26000000E+02   -1.57828301E-17   -3.86999822E-17    2.66911227E-01    6.54474494E-01    2.19507647E-32    6.27788817E+00    6.27788817E+00   
                   9.00000000E+01    2.28000000E+02   -9.29654436E-18   -3.72879930E-17    1.68617736E-01    6.76317640E-01    1.85582694E-32    6.10521397E+00    6.10521397E+00   
                   9.00000000E+01    2.30000000E+02   -3.42173774E-18   -3.46901919E-17    6.65966424E-02    6.75168724E-01    1.52696194E-32    5.78414858E+00    5.78414858E+00   
                   9.00000000E+01    2.32000000E+02    1.56024823E-18   -3.11004151E-17   -3.26139206E-02    6.50093008E-01    1.21852350E-32    5.32417754E+00    5.32417754E+00   
                   9.00000000E+01    2.34000000E+02    5.43431065E-18   -2.67935050E-17   -1.22152558E-01    6.02265010E-01    9.39240249E-33    4.74561936E+00    4.74561936E+00   
                   9.00000000E+01    2.36000000E+02    8.07810390E-18   -2.21007247E-17   -1.95587520E-01    5.35104028E-01    6.95797168E-33    4.07892828E+00    4.07892828E+00   
                   9.00000000E+01    2.38000000E+02    9.47874941E-18   -1.73755531E-17   -2.47731346E-01    4.54117834E-01    4.92295782E-33    3.36268320E+00    3.36268320E+00   
                   9.00000000E+01    2.40000000E+02    9.73594196E-18   -1.29540530E-17   -2.75396076E-01    3.66425290E-01    3.29987934E-33    2.64032631E+00    2.64032631E+00   
                   9.00000000E+01    2.42000000E+02    9.04956565E-18   -9.11560221E-18   -2.77953735E-01    2.79982022E-01    2.07331094E-33    1.95593311E+00    1.95593311E+00   
                   9.00000000E+01    2.44000000E+02    7.69255008E-18   -6.05046072E-18   -2.57577368E-01    2.02593644E-01    1.20364972E-33    1.34950612E+00    1.34950612E+00   
                   9.00000000E+01    2.46000000E+02    5.97256026E-18   -3.84007907E-18   -2.19076880E-01    1.40856267E-01    6.33567294E-34    8.52441850E-01    8.52441850E-01   
                   9.00000000E+01    2.48000000E+02    4.18859989E-18   -2.45416072E-18   -1.69308384E-01    9.92002091E-02    2.96155098E-34    4.83880798E-01    4.83880798E-01   
                   9.00000000E+01    2.50000000E+02    2.59007627E-18   -1.76550806E-18   -1.16215975E-01    7.92178368E-02    1.23471048E-34    2.48583149E-01    2.48583149E-01   
                   9.00000000E+01    2.52000000E+02    1.34583671E-18   -1.58017327E-18   -6.76449648E-02    7.94232798E-02    5.41387397E-35    1.36771104E-01    1.36771104E-01   
                   9.00000000E+01    2.54000000E+02    5.28970936E-19   -1.67718119E-18   -3.01269049E-02    9.55218419E-02    3.88646048E-35    1.26066492E-01    1.26066492E-01   
                   9.00000000E+01    2.56000000E+02    1.20024233E-19   -1.84991322E-18   -7.86171010E-03    1.21171209E-01    4.31853975E-35    1.85281942E-01    1.85281942E-01   
                   9.00000000E+01    2.58000000E+02    2.73356160E-20   -1.94077325E-18   -2.10026209E-03    1.49114345E-01    4.73418916E-35    2.79469786E-01    2.79469786E-01   
                   9.00000000E+01    2.60000000E+02    1.19430915E-19   -1.86223938E-18   -1.10615792E-02    1.72478862E-01    4.37586063E-35    3.75374033E-01    3.75374033E-01   
                   9.00000000E+01    2.62000000E+02    2.61731133E-19   -1.60057965E-18   -3.04138920E-02    1.85991846E-01    3.30540584E-35    4.46331995E-01    4.46331995E-01   
                   9.00000000E+01    2.64000000E+02    3.49017944E-19   -1.20263397E-18   -5.42308840E-02    1.86866906E-01    1.97058534E-35    4.75765672E-01    4.75765672E-01   
                   9.00000000E+01    2.66000000E+02    3.26402524E-19   -7.50098074E-19   -7.62305272E-02    1.75183608E-01    8.40923587E-36    4.58677424E-01    4.58677424E-01   
                   9.00000000E+01    2.68000000E+02    1.94669660E-19   -3.28623826E-19   -9.10402853E-02    1.53686028E-01    1.83330650E-36    4.00964346E-01    4.00964346E-01   
                   9.00000000E+01    2.70000000E+02    1.07112096E-33   -1.42911618E-33   -9.52260019E-02    1.27052896E-01    4.00826152E-65    3.16803605E-01    3.16803605E-01   
                   9.00000000E+01    2.72000000E+02   -1.87902648E-19    2.15552824E-19   -8.78755868E-02    1.00806620E-01    1.02755746E-36    2.24738147E-01    2.24738147E-01   
                   9.00000000E+01    2.74000000E+02   -3.02423407E-19    3.42989613E-19   -7.06302620E-02    8.01044021E-02    2.62765061E-36    1.43323844E-01    1.43323844E-01   
                   9.00000000E+01    2.76000000E+02   -3.03645495E-19    4.41966176E-19   -4.71808510E-02    6.86733069E-02    3.61326745E-36    8.72364458E-02    8.72364458E-02   
                   9.00000000E+01    2.78000000E+02   -1.92454793E-19    5.86121712E-19   -2.23637870E-02    6.81089876E-02    4.78247802E-36    6.45782413E-02    6.45782413E-02   
                   9.00000000E+01    2.80000000E+02   -1.15857671E-20    8.38560674E-19   -1.07306287E-03    7.76667020E-02    8.83815758E-36    7.58162826E-02    7.58162826E-02   
                   9.00000000E+01    2.82000000E+02    1.66178408E-19    1.23069567E-18    1.27678926E-02    9.45573517E-02    1.93801973E-35    1.14405644E-01    1.14405644E-01   
                   9.00000000E+01    2.84000000E+02    2.58929949E-19    1.75034885E-18    1.69601766E-02    1.14649641E-01    3.93423635E-35    1.68793849E-01    1.68793849E-01   
                   9.00000000E+01    2.86000000E+02    1.99657793E-19    2.34222250E-18    1.13712700E-02    1.33398472E-01    6.94401237E-35    2.25245383E-01    2.25245383E-01   
                   9.00000000E+01    2.88000000E+02   -4.32145916E-20    2.92039676E-18   -2.17206850E-03    1.46786111E-01    1.07198489E-34    2.70816347E-01    2.70816347E-01   
                   9.00000000E+01    2.90000000E+02   -4.54134656E-19    3.38937036E-18   -2.03768909E-02    1.52080070E-01    1.46952014E-34    2.95857167E-01    2.95857167E-01   
                   9.00000000E+01    2.92000000E+02   -9.70398252E-19    3.66814018E-18   -3.92246966E-02    1.48270759E-01    1.80917097E-34    2.95596158E-01    2.95596158E-01   
                   9.00000000E+01    2.94000000E+02   -1.49356335E-18    3.71134920E-18   -5.47847463E-02    1.36134382E-01    2.01122806E-34    2.70603452E-01    2.70603452E-01   
                   9.00000000E+01    2.96000000E+02   -1.90930591E-18    3.52259377E-18   -6.39312044E-02    1.17950540E-01    2.01741970E-34    2.26188748E-01    2.26188748E-01   
                   9.00000000E+01    2.98000000E+02   -2.11093764E-18    3.15714475E-18   -6.48365928E-02    9.69704195E-02    1.81252564E-34    1.70991183E-01    1.70991183E-01   
                   9.00000000E+01    3.00000000E+02   -2.02132565E-18    2.71394481E-18   -5.71763014E-02    7.67680984E-02    1.43900699E-34    1.15138998E-01    1.15138998E-01   
                   9.00000000E+01    3.02000000E+02   -1.60873916E-18    2.31910982E-18   -4.20451159E-02    6.06109701E-02    1.00107630E-34    6.83796729E-02    6.83796729E-02   
                   9.00000000E+01    3.04000000E+02   -8.93849207E-19    2.10475864E-18   -2.16419289E-02    5.09605384E-02    6.57092423E-35    3.85203187E-02    3.85203187E-02   
                   9.00000000E+01    3.06000000E+02    5.27984167E-20    2.18755960E-18    1.18680400E-03    4.91720142E-02    6.01703547E-35    3.04017637E-02    3.04017637E-02   
                   9.00000000E+01    3.08000000E+02    1.12155813E-18    2.65094261E-18    2.34439669E-02    5.54127414E-02    1.04117274E-34    4.54926679E-02    4.54926679E-02   
                   9.00000000E+01    3.10000000E+02    2.18001549E-18    3.53373833E-18    4.24292342E-02    6.87764890E-02    2.16641391E-34    8.20639966E-02    8.20639966E-02   
                   9.00000000E+01    3.12000000E+02    3.09152306E-18    4.82645220E-18    5.60730522E-02    8.75406397E-02    4.12832363E-34    1.35811689E-01    1.35811689E-01   
                   9.00000000E+01    3.14000000E+02    3.73268746E-18    6.47485047E-18    6.31253194E-02    1.09499391E-01    7.01915294E-34    2.00746798E-01    2.00746798E-01   
                   9.00000000E+01    3.16000000E+02    4.00724326E-18    8.38933376E-18    6.31978107E-02    1.32307298E-01    1.08622350E-33    2.70166718E-01    2.70166718E-01   
                   9.00000000E+01    3.18000000E+02    3.85477644E-18    1.04578718E-17    5.66833849E-02    1.53780013E-01    1.56107478E-33    3.37549034E-01    3.37549034E-01   
                   9.00000000E+01    3.20000000E+02    3.25385697E-18    1.25601015E-17    4.45893491E-02    1.72117814E-01    2.11546976E-33    3.97257559E-01    3.97257559E-01   
                   9.00000000E+01    3.22000000E+02    2.22008574E-18    1.45804629E-17    2.83268789E-02    1.86037412E-01    2.73342032E-33    4.45004472E-01    4.45004472E-01   