##File Type: Far field
##File Format: 5
##Source: RWG_wire_XY_rad_theta450.24
##Date: 2020-09-16 10:50:29
** File exported by POSTFEKO version 2018-319328 (x64)

#Configuration Name: StandardConfiguration1
#Request Name: FarField1
#Frequency: 3.00000000E+08
#Coordinate System: Spherical
#No. of Theta Samples: 1
#No. of Phi Samples: 181
#Result Type: RCS
#Incident Wave Direction: (4.50000000E+01, 0.00000000E+00)
#No. of Header Lines: 1
#                 "Theta"           "Phi"             "Re(Etheta)"      "Im(Etheta)"      "Re(Ephi)"        "Im(Ephi)"        "RCS(Theta)"      "RCS(Phi)"        "RCS(Total)"      
                   9.00000000E+01    0.00000000E+00   -2.15942873E-01   -2.75840083E-01   -3.62932818E-04    2.67716879E-05    1.54213339E+00    1.66425184E-06    1.54213505E+00   
                   9.00000000E+01    2.00000000E+00   -2.17046557E-01   -2.74808570E-01    7.65045090E-03   -3.52965096E-04    1.54100094E+00    7.37067693E-04    1.54173800E+00   
                   9.00000000E+01    4.00000000E+00   -2.20313742E-01   -2.71658050E-01    1.56268456E-02   -8.91953446E-04    1.53732255E+00    3.07868396E-03    1.54040123E+00   
                   9.00000000E+01    6.00000000E+00   -2.25600115E-01   -2.66256979E-01    2.35183299E-02   -1.75012044E-03    1.53043554E+00    6.98909819E-03    1.53742464E+00   
                   9.00000000E+01    8.00000000E+00   -2.32655907E-01   -2.58399446E-01    3.12589948E-02   -3.08367545E-03    1.51926220E+00    1.23984061E-02    1.53166061E+00   
                   9.00000000E+01    1.00000000E+01   -2.41113702E-01   -2.47825912E-01    3.87563583E-02   -5.04111932E-03    1.50235359E+00    1.91947314E-02    1.52154832E+00   
                   9.00000000E+01    1.20000000E+01   -2.50474639E-01   -2.34253507E-01    4.58836200E-02   -7.75682192E-03    1.47795913E+00    2.72121598E-02    1.50517129E+00   
                   9.00000000E+01    1.40000000E+01   -2.60096418E-01   -2.17416567E-01    5.24735054E-02   -1.13415510E-02    1.44412870E+00    3.62175310E-02    1.48034623E+00   
                   9.00000000E+01    1.60000000E+01   -2.69187458E-01   -1.97117531E-01    5.83147900E-02   -1.58695920E-02    1.39885330E+00    4.58981495E-02    1.44475145E+00   
                   9.00000000E+01    1.80000000E+01   -2.76812423E-01   -1.73287115E-01    6.31529511E-02   -2.13625155E-02    1.34024793E+00    5.58531480E-02    1.39610108E+00   
                   9.00000000E+01    2.00000000E+01   -2.81914781E-01   -1.46050961E-01    6.66966648E-02   -2.77702630E-02    1.26677594E+00    6.55918378E-02    1.33236778E+00   
                   9.00000000E+01    2.20000000E+01   -2.83361857E-01   -1.15797604E-01    6.86319712E-02   -3.49510454E-02    1.17750696E+00    7.45427434E-02    1.25204971E+00   
                   9.00000000E+01    2.40000000E+01   -2.80016712E-01   -8.32399137E-02    6.86457088E-02   -4.26525518E-02    1.07239198E+00    8.20769168E-02    1.15446890E+00   
                   9.00000000E+01    2.60000000E+01   -2.70838695E-01   -4.94594663E-02    6.64591600E-02   -5.04980482E-02    9.52528854E-01    8.75483059E-02    1.04007716E+00   
                   9.00000000E+01    2.80000000E+01   -2.55010633E-01   -1.59211234E-02    6.18716068E-02   -5.79819302E-02    8.20381746E-01    9.03522041E-02    9.10733950E-01   
                   9.00000000E+01    3.00000000E+01   -2.32085236E-01    1.55557530E-02    5.48116336E-02   -6.44799077E-02    6.79910244E-01    9.00000156E-02    7.69910260E-01   
                   9.00000000E+01    3.20000000E+01   -2.02136863E-01    4.28817967E-02    4.53915827E-02   -6.92789010E-02    5.36560899E-01    8.62048238E-02    6.22765723E-01   
                   9.00000000E+01    3.40000000E+01   -1.65898040E-01    6.38460328E-02    3.39578156E-02   -7.16305433E-02    3.97078153E-01    7.89679271E-02    4.76046080E-01   
                   9.00000000E+01    3.60000000E+01   -1.24854403E-01    7.63288340E-02    2.11268067E-02   -7.08296170E-02    2.69105219E-01    6.86523019E-02    3.37757521E-01   
                   9.00000000E+01    3.80000000E+01   -8.12686504E-02    7.85692083E-02    7.79527829E-03   -6.63146512E-02    1.60569490E-01    5.60258982E-02    2.16595388E-01   
                   9.00000000E+01    4.00000000E+01   -3.81054961E-02    6.94628276E-02   -4.88760737E-03   -5.77824727E-02    7.88805315E-02    4.22569704E-02    1.21137502E-01   
                   9.00000000E+01    4.20000000E+01    1.16284178E-03    4.88531879E-02   -1.55956989E-02   -4.53023497E-02    3.00083193E-02    2.88464646E-02    5.88547839E-02   
                   9.00000000E+01    4.40000000E+01    3.28766263E-02    1.77664421E-02   -2.29532676E-02   -2.94096033E-02    1.75491755E-02    1.74895889E-02    3.50387644E-02   
                   9.00000000E+01    4.60000000E+01    5.36190356E-02   -2.14657753E-02   -2.57100893E-02   -1.11547564E-02    4.19186540E-02    9.87009598E-03    5.17887499E-02   
                   9.00000000E+01    4.80000000E+01    6.07166785E-02   -6.52482582E-02   -2.29487224E-02    7.91580528E-03    9.98253664E-02    7.40541038E-03    1.07230777E-01   
                   9.00000000E+01    5.00000000E+01    5.27442461E-02   -1.08966797E-01   -1.42963697E-02    2.58664638E-02    1.84169187E-01    1.09762238E-02    1.95145411E-01   
                   9.00000000E+01    5.20000000E+01    2.99472539E-02   -1.47445858E-01   -1.03187734E-04    4.05736801E-02    2.84466429E-01    2.06871886E-02    3.05153618E-01   
                   9.00000000E+01    5.40000000E+01   -5.51140209E-03   -1.75591750E-01    1.84567884E-02    5.00121579E-02    3.87833862E-01    3.57119788E-02    4.23545841E-01   
                   9.00000000E+01    5.60000000E+01   -4.95660417E-02   -1.89150224E-01    3.94036121E-02    5.25950946E-02    4.80470151E-01    5.42727550E-02    5.34742906E-01   
                   9.00000000E+01    5.80000000E+01   -9.65789130E-02   -1.85467212E-01    6.01171585E-02    4.75169582E-02    5.49471756E-01    7.37888996E-02    6.23260656E-01   
                   9.00000000E+01    6.00000000E+01   -1.39992278E-01   -1.64114338E-01    7.76562123E-02    3.50318025E-02    5.84730238E-01    9.12031301E-02    6.75933368E-01   
                   9.00000000E+01    6.20000000E+01   -1.73243942E-01   -1.27237089E-01    8.92049253E-02    1.65956576E-02    5.80600756E-01    1.03458107E-01    6.84058863E-01   
                   9.00000000E+01    6.40000000E+01   -1.90822892E-01   -7.95096986E-02    9.25861779E-02   -5.18751059E-03    5.37025962E-01    1.08059611E-01    6.45085573E-01   
                   9.00000000E+01    6.60000000E+01   -1.89288929E-01   -2.76381697E-02    8.67517971E-02   -2.68486579E-02    4.59855864E-01    1.03631399E-01    5.63487264E-01   
                   9.00000000E+01    6.80000000E+01   -1.68055201E-01    2.05651104E-02    7.21436871E-02   -4.45548101E-02    3.60220976E-01    9.03502279E-02    4.50571204E-01   
                   9.00000000E+01    7.00000000E+01   -1.29747275E-01    5.74190820E-02    5.08252632E-02   -5.47672342E-02    2.52977457E-01    7.01537409E-02    3.23131198E-01   
                   9.00000000E+01    7.20000000E+01   -8.00110202E-02    7.67245469E-02    2.63129536E-02   -5.49476970E-02    1.54420833E-01    4.66416042E-02    2.01062437E-01   
                   9.00000000E+01    7.40000000E+01   -2.67384459E-02    7.49752552E-02    3.09099991E-03   -4.41719535E-02    7.96234570E-02    2.46390809E-02    1.04262538E-01   
                   9.00000000E+01    7.60000000E+01    2.12009234E-02    5.21728486E-02   -1.41391992E-02   -2.35048242E-02    3.98540595E-02    9.45485829E-03    4.93089178E-02   
                   9.00000000E+01    7.80000000E+01    5.55201798E-02    1.20414430E-02   -2.13555887E-02    3.97989531E-03    4.05577942E-02    5.93007953E-03    4.64878737E-02   
                   9.00000000E+01    8.00000000E+01    7.00793135E-02   -3.84573658E-02   -1.60865158E-02    3.35899645E-02    8.03001030E-02    1.74303314E-02    9.77304345E-02   
                   9.00000000E+01    8.20000000E+01    6.21368676E-02   -9.02689687E-02    1.93424672E-03    5.97867306E-02    1.50915539E-01    4.49649179E-02    1.95880457E-01   
                   9.00000000E+01    8.40000000E+01    3.30110915E-02   -1.33865047E-01    3.04962832E-02    7.72201978E-02    2.38881466E-01    8.66197695E-02    3.25501236E-01   
                   9.00000000E+01    8.60000000E+01   -1.20222804E-02   -1.61037112E-01    6.51277258E-02    8.18351774E-02    3.27699363E-01    1.37458714E-01    4.65158077E-01   
                   9.00000000E+01    8.80000000E+01   -6.46163435E-02   -1.66506309E-01    9.98026216E-02    7.18191534E-02    4.00862484E-01    1.89985354E-01    5.90847838E-01   
                   9.00000000E+01    9.00000000E+01   -1.14877188E-01   -1.49010890E-01    1.28037822E-01    4.81742828E-02    4.44862257E-01    2.35172656E-01    6.80034912E-01   
                   9.00000000E+01    9.20000000E+01   -1.53236357E-01   -1.11629209E-01    1.44181793E-01    1.47588839E-02    4.51666289E-01    2.63971871E-01    7.15638160E-01   
                   9.00000000E+01    9.40000000E+01   -1.72297353E-01   -6.12510951E-02    1.44640159E-01   -2.22529350E-02    4.20195236E-01    2.69121002E-01    6.89316238E-01   
                   9.00000000E+01    9.60000000E+01   -1.68278129E-01   -7.28986851E-03    1.28778855E-01   -5.54228583E-02    3.56516365E-01    2.47000645E-01    6.03517010E-01   
                   9.00000000E+01    9.80000000E+01   -1.41751732E-01    4.01100040E-02    9.92994811E-02   -7.74273890E-02    2.72719972E-01    1.99244676E-01    4.71964648E-01   
                   9.00000000E+01    1.00000000E+02   -9.75342632E-02    7.20067769E-02    6.19829008E-02   -8.25029754E-02    1.84699364E-01    1.33814517E-01    3.18513882E-01   
                   9.00000000E+01    1.02000000E+02   -4.37493841E-02    8.23462011E-02    2.48244755E-02   -6.76727749E-02    1.09263404E-01    6.52930904E-02    1.74556495E-01   
                   9.00000000E+01    1.04000000E+02    9.73000450E-03    6.90646355E-02   -3.29080240E-03   -3.35081474E-02    6.11303270E-02    1.42455559E-02    7.53758829E-02   
                   9.00000000E+01    1.06000000E+02    5.31384356E-02    3.44068794E-02   -1.41305521E-02    1.57318808E-02    5.03600657E-02    5.61923581E-03    5.59793015E-02   
                   9.00000000E+01    1.08000000E+02    7.85988519E-02   -1.55765030E-02   -1.58849615E-03    7.26174852E-02    8.06812135E-02    6.62979405E-02    1.46979154E-01   
                   9.00000000E+01    1.10000000E+02    8.14863807E-02   -7.22193769E-02    3.71809039E-02    1.27628074E-01    1.48982726E-01    2.22064670E-01    3.71047396E-01   
                   9.00000000E+01    1.12000000E+02    6.11363441E-02   -1.25854210E-01    1.01166692E-01    1.70597302E-01    2.46011019E-01    4.94337633E-01    7.40348652E-01   
                   9.00000000E+01    1.14000000E+02    2.08037994E-02   -1.67520142E-01    1.85537688E-01    1.92263450E-01    3.58088735E-01    8.97106511E-01    1.25519525E+00   
                   9.00000000E+01    1.16000000E+02   -3.30645758E-02   -1.90441816E-01    2.82284558E-01    1.85657984E-01    4.69496587E-01    1.43449467E+00    1.90399126E+00   
                   9.00000000E+01    1.18000000E+02   -9.20581669E-02   -1.91028183E-01    3.81334895E-01    1.47109052E-01    5.65065364E-01    2.09930489E+00    2.66437026E+00   
                   9.00000000E+01    1.20000000E+02   -1.47265077E-01   -1.69256037E-01    4.71935068E-01    7.67191728E-02    6.32523349E-01    2.87277964E+00    3.50530299E+00   
                   9.00000000E+01    1.22000000E+02   -1.90689796E-01   -1.28432493E-01    5.44063669E-01   -2.17226179E-02    6.64226977E-01    3.72564172E+00    4.38986870E+00   
                   9.00000000E+01    1.24000000E+02   -2.16387262E-01   -7.44453337E-02    5.89657790E-01   -1.41335927E-01    6.58044969E-01    4.62030454E+00    5.27834951E+00   
                   9.00000000E+01    1.26000000E+02   -2.21156464E-01   -1.46884221E-02    6.03486638E-01   -2.73116627E-01    6.17334659E-01    5.51398286E+00    6.13131752E+00   
                   9.00000000E+01    1.28000000E+02   -2.04736407E-01    4.31190983E-02    5.83582264E-01   -4.07098391E-01    5.50108619E-01    6.36232025E+00    6.91242887E+00   
                   9.00000000E+01    1.30000000E+02   -1.69542095E-01    9.20152748E-02    5.31217546E-01   -5.33522174E-01    4.67611400E-01    7.12309628E+00    7.59070768E+00   
                   9.00000000E+01    1.32000000E+02   -1.20050360E-01    1.26624219E-01    4.50491712E-01   -6.43852242E-01    3.82592976E-01    7.75958924E+00    8.14218222E+00   
                   9.00000000E+01    1.34000000E+02   -6.19850481E-02    1.43644592E-01    3.47632822E-01   -7.31524338E-01    3.07573417E-01    8.24324301E+00    8.55081643E+00   
                   9.00000000E+01    1.36000000E+02   -1.45697876E-03    1.41981918E-01    2.30150044E-01   -7.92368747E-01    2.53350445E-01    8.55540219E+00    8.80875264E+00   
                   9.00000000E+01    1.38000000E+02    5.58081141E-02    1.22568678E-01    1.05966912E-01   -8.24706873E-01    2.27924136E-01    8.68801684E+00    8.91594098E+00   
                   9.00000000E+01    1.40000000E+02    1.05060604E-01    8.79560440E-02   -1.73545009E-02   -8.29165207E-01    2.35920994E-01    8.64335227E+00    8.87927326E+00   
                   9.00000000E+01    1.42000000E+02    1.42890875E-01    4.17784404E-02   -1.33222091E-01   -8.08280212E-01    2.78511491E-01    8.43285182E+00    8.71136331E+00   
                   9.00000000E+01    1.44000000E+02    1.67363846E-01   -1.18109698E-02   -2.36415967E-01   -7.65980184E-01    3.53745291E-01    8.07537785E+00    8.42912314E+00   
                   9.00000000E+01    1.46000000E+02    1.77955715E-01   -6.86537812E-02   -3.23280314E-01   -7.07027614E-01    4.57184396E-01    7.59509189E+00    8.05227629E+00   
                   9.00000000E+01    1.48000000E+02    1.75345186E-01   -1.24994814E-01   -3.91728018E-01   -6.36491894E-01    5.82698056E-01    7.01923247E+00    7.60193052E+00   
                   9.00000000E+01    1.50000000E+02    1.61118839E-01   -1.77759274E-01   -4.41098734E-01   -5.59302278E-01    7.23290631E-01    6.37601473E+00    7.09930536E+00   
                   9.00000000E+01    1.52000000E+02    1.37446915E-01   -2.24696676E-01   -4.71918803E-01   -4.79909336E-01    8.71857944E-01    5.69282133E+00    6.56467928E+00   
                   9.00000000E+01    1.54000000E+02    1.06775055E-01   -2.64407683E-01   -4.85610757E-01   -4.02063409E-01    1.02180094E+00    4.99479042E+00    6.01659136E+00   
                   9.00000000E+01    1.56000000E+02    7.15633016E-02   -2.96280664E-01   -4.84193596E-01   -3.28702950E-01    1.16746029E+00    4.30384455E+00    5.47130484E+00   
                   9.00000000E+01    1.58000000E+02    3.40891779E-02   -3.20368705E-01   -4.70005085E-01   -2.61935283E-01    1.30436639E+00    3.63815119E+00    4.94251758E+00   
                   9.00000000E+01    1.60000000E+02   -3.68089641E-03   -3.37236285E-01   -4.45466422E-01   -2.03086965E-01    1.42932238E+00    3.01196613E+00    4.44128851E+00   
                   9.00000000E+01    1.62000000E+02   -4.01569131E-02   -3.47799906E-01   -4.12899449E-01   -1.52799859E-01    1.54035244E+00    2.43578677E+00    3.97613920E+00   
                   9.00000000E+01    1.64000000E+02   -7.41381682E-02   -3.53180345E-01   -3.74398319E-01   -1.11151125E-01    1.63655393E+00    1.91673184E+00    3.55328577E+00   
                   9.00000000E+01    1.66000000E+02   -1.04787210E-01   -3.54577360E-01   -3.31751586E-01   -7.77791979E-02    1.71789152E+00    1.45906519E+00    3.17695671E+00   
                   9.00000000E+01    1.68000000E+02   -1.31578436E-01   -3.53171689E-01   -2.86407135E-01   -5.20025484E-02    1.78496657E+00    1.06479020E+00    2.84975677E+00   
                   9.00000000E+01    1.70000000E+02   -1.54233423E-01   -3.50054485E-01   -2.39470791E-01   -3.29226794E-02    1.83878789E+00    7.34255081E-01    2.57304297E+00   
                   9.00000000E+01    1.72000000E+02   -1.72652677E-01   -3.46181162E-01   -1.91729528E-01   -1.95069043E-02    1.88056168E+00    4.66724192E-01    2.34728587E+00   
                   9.00000000E+01    1.74000000E+02   -1.86850917E-01   -3.42344835E-01   -1.43691175E-01   -1.06497342E-02    1.91151149E+00    2.60885023E-01    2.17239651E+00   
                   9.00000000E+01    1.76000000E+02   -1.96900611E-01   -3.39163897E-01   -9.56341979E-02   -5.21409356E-03    1.93273293E+00    1.15272406E-01    2.04800533E+00   
                   9.00000000E+01    1.78000000E+02   -2.02886550E-01   -3.37078485E-01   -4.76628641E-02   -2.05518726E-03    1.94508388E+00    2.86007128E-02    1.97368459E+00   
                   9.00000000E+01    1.80000000E+02   -2.04872903E-01   -3.36351352E-01    2.35199250E-04   -3.08189724E-05    1.94910866E+00    7.07090780E-07    1.94910936E+00   
                   9.00000000E+01    1.82000000E+02   -2.02883338E-01   -3.37069780E-01    4.81306608E-02    1.99751479E-03    1.94499376E+00    2.91608985E-02    1.97415466E+00   
                   9.00000000E+01    1.84000000E+02   -1.96894388E-01   -3.39146454E-01    9.60940069E-02    5.16818100E-03    1.93255345E+00    1.16374246E-01    2.04892770E+00   
                   9.00000000E+01    1.86000000E+02   -1.86842088E-01   -3.42318607E-01    1.44137077E-01    1.06229535E-02    1.91124437E+00    2.62490672E-01    2.17373504E+00   
                   9.00000000E+01    1.88000000E+02   -1.72641853E-01   -3.46146122E-01    1.92154759E-01    1.95058815E-02    1.88020987E+00    4.68775018E-01    2.34898489E+00   
                   9.00000000E+01    1.90000000E+02   -1.54221419E-01   -3.50010685E-01    2.39867500E-01    3.29529149E-02    1.83835604E+00    7.36669701E-01    2.57502574E+00   
                   9.00000000E+01    1.92000000E+02   -1.31566255E-01   -3.53119328E-01    2.86766246E-01    5.20679698E-02    1.78446157E+00    1.06746233E+00    2.85192390E+00   
                   9.00000000E+01    1.94000000E+02   -1.04776011E-01   -3.54516872E-01    3.32062806E-01    7.78816495E-02    1.71732303E+00    1.46186171E+00    3.17918474E+00   
                   9.00000000E+01    1.96000000E+02   -7.41292061E-02   -3.53112484E-01    3.74650325E-01    1.11289813E-01    1.63593494E+00    1.91949160E+00    3.55542654E+00   
                   9.00000000E+01    1.98000000E+02   -4.01514360E-02   -3.47725838E-01    4.13080306E-01    1.52970792E-01    1.53969954E+00    2.43832078E+00    3.97802032E+00   
                   9.00000000E+01    2.00000000E+02   -3.68000590E-03   -3.37157650E-01    4.45564245E-01    2.03282458E-01    1.42865589E+00    3.01405975E+00    4.44271565E+00   
                   9.00000000E+01    2.02000000E+02    3.40847123E-02   -3.20287644E-01    4.70008972E-01    2.62143603E-01    1.30370997E+00    3.63956904E+00    4.94327901E+00   
                   9.00000000E+01    2.04000000E+02    7.15532634E-02   -2.96199779E-01    4.84094798E-01    3.28908216E-01    1.16684002E+00    4.30433867E+00    5.47117869E+00   
                   9.00000000E+01    2.06000000E+02    1.06760019E-01   -2.64329911E-01    4.85404038E-01    4.02245859E-01    1.02124385E+00    4.99411207E+00    6.01535592E+00   
                   9.00000000E+01    2.08000000E+02    1.37428468E-01   -2.24625054E-01    4.71603861E-01    4.80046056E-01    8.71389825E-01    5.69073645E+00    6.56212627E+00   
                   9.00000000E+01    2.10000000E+02    1.61099743E-01   -1.77696585E-01    4.40681537E-01    5.59368482E-01    7.22933295E-01    6.37232254E+00    7.09525583E+00   
                   9.00000000E+01    2.12000000E+02    1.75329422E-01   -1.24943127E-01    3.91221824E-01    6.36462770E-01    5.82466250E-01    7.01378621E+00    7.59625246E+00   
                   9.00000000E+01    2.14000000E+02    1.77948348E-01   -6.86139138E-02    3.22706145E-01    7.06880664E-01    4.57082677E-01    7.58781999E+00    8.04490267E+00   
                   9.00000000E+01    2.16000000E+02    1.67370663E-01   -1.17819477E-02    2.35802293E-01    7.65697908E-01    3.53765364E-01    8.06630313E+00    8.42006850E+00   
                   9.00000000E+01    2.18000000E+02    1.42917768E-01    4.17998371E-02    1.32603536E-01    8.07852839E-01    2.78630552E-01    8.42210609E+00    8.70073664E+00   
                   9.00000000E+01    2.20000000E+02    1.05112698E-01    8.79755240E-02    1.67694753E-02    8.28593105E-01    2.36101647E-01    8.63118337E+00    8.86728501E+00   
                   9.00000000E+01    2.22000000E+02    5.58887234E-02    1.22594346E-01   -1.06479578E-01    8.24002184E-01    2.28116358E-01    8.67478554E+00    8.90290190E+00   
                   9.00000000E+01    2.24000000E+02   -1.34744499E-03    1.42023732E-01   -2.30555206E-01    7.91555815E-01    2.53495817E-01    8.54156709E+00    8.79506290E+00   
                   9.00000000E+01    2.26000000E+02   -6.18500332E-02    1.43713326E-01   -3.47903411E-01    7.30638572E-01    3.07611516E-01    8.22933292E+00    8.53694444E+00   
                   9.00000000E+01    2.28000000E+02   -1.19897727E-01    1.26729945E-01   -4.50612755E-01    6.42937253E-01    3.82469351E-01    7.74616427E+00    8.12863362E+00   
                   9.00000000E+01    2.30000000E+02   -1.69384078E-01    9.21655143E-02   -5.31189107E-01    5.32625297E-01    4.67286122E-01    7.11070060E+00    7.57798672E+00   
                   9.00000000E+01    2.32000000E+02   -2.04588760E-01    4.33169015E-02   -5.83420591E-01    4.06265038E-01    5.49564015E-01    6.35143160E+00    6.90099561E+00   
                   9.00000000E+01    2.34000000E+02   -2.21036741E-01   -1.44461095E-02   -6.03223025E-01    2.72384219E-01    6.16580673E-01    5.50496481E+00    6.12154548E+00   
                   9.00000000E+01    2.36000000E+02   -2.16312323E-01   -7.41686099E-02   -5.89334973E-01    1.40728408E-01    6.57120698E-01    4.61336844E+00    5.27048913E+00   
                   9.00000000E+01    2.38000000E+02   -1.90672835E-01   -1.28138370E-01   -5.43730060E-01    2.12466040E-02    6.63197396E-01    3.72082438E+00    4.38402178E+00   
                   9.00000000E+01    2.40000000E+02   -1.47312659E-01   -1.68967000E-01   -4.71637579E-01   -7.70756865E-02    6.31471013E-01    2.86994124E+00    3.50141226E+00   
                   9.00000000E+01    2.42000000E+02   -9.21678671E-02   -1.90769426E-01   -3.81111543E-01   -1.47374896E-01    5.64077856E-01    2.09814870E+00    2.66222655E+00   
                   9.00000000E+01    2.44000000E+02   -3.32238419E-02   -1.90237426E-01   -2.82158239E-01   -1.85873951E-01    4.68651508E-01    1.43460700E+00    1.90325851E+00   
                   9.00000000E+01    2.46000000E+02    2.06170795E-02   -1.67388812E-01   -1.85512438E-01   -1.92475042E-01    3.57438830E-01    8.98011777E-01    1.25545061E+00   
                   9.00000000E+01    2.48000000E+02    6.09513756E-02   -1.25805257E-01   -1.01227383E-01   -1.70846359E-01    2.45572427E-01    4.95560621E-01    7.41133049E-01   
                   9.00000000E+01    2.50000000E+02    8.13352797E-02   -7.22499592E-02   -3.72966512E-02   -1.27944918E-01    1.48729083E-01    2.23190582E-01    3.71919664E-01   
                   9.00000000E+01    2.52000000E+02    7.85113497E-02   -1.56707886E-02    1.45771092E-03   -7.30152552E-02    8.05454801E-02    6.70208831E-02    1.47566363E-01   
                   9.00000000E+01    2.54000000E+02    5.31364163E-02    3.42761524E-02    1.40253283E-02   -1.62043697E-02    5.02445389E-02    5.77162632E-03    5.60161652E-02   
                   9.00000000E+01    2.56000000E+02    9.82299184E-03    6.89322301E-02    3.24362275E-03    3.29845697E-02    6.09235681E-02    1.38041949E-02    7.47277630E-02   
                   9.00000000E+01    2.58000000E+02   -4.35667449E-02    8.22486512E-02   -2.47961563E-02    6.71334593E-02    1.08861236E-01    6.43618178E-02    1.73223054E-01   
                   9.00000000E+01    2.60000000E+02   -9.72820175E-02    7.19758834E-02   -6.18801899E-02    8.19867321E-02    1.84025936E-01    1.32587552E-01    3.16613488E-01   
                   9.00000000E+01    2.62000000E+02   -1.41461545E-01    4.01668550E-02   -9.91413521E-02    7.69675271E-02    2.71744560E-01    1.97958136E-01    4.69702696E-01   
                   9.00000000E+01    2.64000000E+02   -1.67987791E-01   -7.13906839E-03   -1.28597363E-01    5.50396012E-02    3.55262159E-01    2.45881645E-01    6.01143804E-01   
                   9.00000000E+01    2.66000000E+02   -1.72043877E-01   -6.10164228E-02   -1.44472689E-01    2.19489898E-02    4.18737852E-01    2.68343735E-01    6.87081588E-01   
                   9.00000000E+01    2.68000000E+02   -1.53049063E-01   -1.11335251E-01   -1.44062189E-01   -1.49985760E-02    4.50121790E-01    2.63628274E-01    7.13750064E-01   
                   9.00000000E+01    2.70000000E+02   -1.14772208E-01   -1.48692096E-01   -1.27988525E-01   -4.83786030E-02    4.43366677E-01    2.35261957E-01    6.78628634E-01   
                   9.00000000E+01    2.72000000E+02   -6.45937046E-02   -1.66200389E-01   -9.98296653E-02   -7.20236785E-02    3.99546698E-01    1.90422893E-01    5.89969591E-01   
                   9.00000000E+01    2.74000000E+02   -1.20661643E-02   -1.60777853E-01   -6.52197270E-02   -8.20736396E-02    3.26664191E-01    1.38100581E-01    4.64764773E-01   
                   9.00000000E+01    2.76000000E+02    3.29290042E-02   -1.33676025E-01   -3.06275562E-02   -7.75166030E-02    2.38177949E-01    8.72969549E-02    3.25474904E-01   
                   9.00000000E+01    2.78000000E+02    6.20517305E-02   -9.01594088E-02   -2.07117074E-03   -6.01499828E-02    1.50534266E-01    4.55192921E-02    1.96053558E-01   
                   9.00000000E+01    2.80000000E+02    7.00263528E-02   -3.84209141E-02    1.59775013E-02   -3.40121666E-02    8.01716442E-02    1.77450728E-02    9.79167170E-02   
                   9.00000000E+01    2.82000000E+02    5.55282434E-02    1.20249416E-02    2.13002993E-02   -4.43856490E-03    4.05640563E-02    5.94896518E-03    4.65130215E-02   
                   9.00000000E+01    2.84000000E+02    2.12875951E-02    5.21330974E-02    1.41500928E-02    2.30413326E-02    3.98482321E-02    9.18762708E-03    4.90358591E-02   
                   9.00000000E+01    2.86000000E+02   -2.65693293E-02    7.49457895E-02   -3.01719669E-03    4.37372338E-02    7.94546559E-02    2.41531813E-02    1.03607837E-01   
                   9.00000000E+01    2.88000000E+02   -7.97691756E-02    7.67367769E-02   -2.61940463E-02    5.45700211E-02    1.53958829E-01    4.60433738E-02    2.00002203E-01   
                   9.00000000E+01    2.90000000E+02   -1.29453400E-01    5.74972480E-02   -5.06893259E-02    5.44638390E-02    2.52133123E-01    6.95638779E-02    3.21697001E-01   
                   9.00000000E+01    2.92000000E+02   -1.67736762E-01    2.07229893E-02   -7.20228920E-02    4.43288686E-02    3.58959174E-01    8.98790252E-02    4.48838200E-01   
                   9.00000000E+01    2.94000000E+02   -1.88975274E-01   -2.73984134E-02   -8.66758088E-02    2.66893632E-02    4.58199119E-01    1.03358624E-01    5.61557742E-01   
                   9.00000000E+01    2.96000000E+02   -1.90540675E-01   -7.91965970E-02   -9.25765312E-02    5.07297835E-03    5.35049040E-01    1.08022397E-01    6.43071437E-01   
                   9.00000000E+01    2.98000000E+02   -1.73013599E-01   -1.26867353E-01   -8.92714418E-02   -1.66935292E-02    5.78417858E-01    1.03648232E-01    6.82066090E-01   
                   9.00000000E+01    3.00000000E+02   -1.39826026E-01   -1.63709424E-01   -7.77959594E-02   -3.51416869E-02    5.82477579E-01    9.15730208E-02    6.74050599E-01   
                   9.00000000E+01    3.02000000E+02   -9.64803343E-02   -1.85049718E-01   -6.03158740E-02   -4.76628512E-02    5.47288728E-01    7.42641344E-02    6.21552862E-01   
                   9.00000000E+01    3.04000000E+02   -4.95310515E-02   -1.88740750E-01   -3.96390343E-02   -5.27924100E-02    4.78482100E-01    5.47679074E-02    5.33250007E-01   
                   9.00000000E+01    3.06000000E+02   -5.53016218E-03   -1.75206638E-01   -1.87030402E-02   -5.02657166E-02    3.86138790E-01    3.61464862E-02    4.22285276E-01   
                   9.00000000E+01    3.08000000E+02    2.98879731E-02   -1.47096013E-01   -1.28915996E-04   -4.08776999E-02    2.83126966E-01    2.09984426E-02    3.04125408E-01   
                   9.00000000E+01    3.10000000E+02    5.26587288E-02   -1.08657526E-01    1.40986458E-02   -2.62062701E-02    1.83210140E-01    1.11280289E-02    1.94338169E-01   
                   9.00000000E+01    3.12000000E+02    6.06183087E-02   -6.49799306E-02    2.27982334E-02   -8.27071925E-03    9.92362609E-02    7.39108987E-03    1.06627351E-01   
                   9.00000000E+01    3.14000000E+02    5.35189323E-02   -2.12349974E-02    2.56111331E-02    1.08080049E-02    4.16600473E-02    9.71057628E-03    5.13706236E-02   
                   9.00000000E+01    3.16000000E+02    3.27829263E-02    1.79654350E-02    2.29018015E-02    2.90935606E-02    1.75612153E-02    1.72275866E-02    3.47888019E-02   
                   9.00000000E+01    3.18000000E+02    1.08056675E-03    4.90271907E-02    1.55806774E-02    4.50361070E-02    3.02200235E-02    2.85383337E-02    5.87583572E-02   
                   9.00000000E+01    3.20000000E+02   -3.81741283E-02    6.96185550E-02    4.89304306E-03    5.75798105E-02    7.92184917E-02    4.19638420E-02    1.21182334E-01   
                   9.00000000E+01    3.22000000E+02   -8.13236394E-02    7.87125093E-02   -7.78796014E-03    6.61831570E-02    1.60965072E-01    5.58055252E-02    2.16770597E-01   