##File Type: Far field
##File Format: 5
##Source: RWG_wire_XY_rad_theta450.0008
##Date: 2020-09-16 10:50:29
** File exported by POSTFEKO version 2018-319328 (x64)

#Configuration Name: StandardConfiguration1
#Request Name: FarField1
#Frequency: 3.00000000E+08
#Coordinate System: Spherical
#No. of Theta Samples: 1
#No. of Phi Samples: 181
#Result Type: RCS
#Incident Wave Direction: (4.50000000E+01, 0.00000000E+00)
#No. of Header Lines: 1
#                 "Theta"           "Phi"             "Re(Etheta)"      "Im(Etheta)"      "Re(Ephi)"        "Im(Ephi)"        "RCS(Theta)"      "RCS(Phi)"        "RCS(Total)"      
                   9.00000000E+01    0.00000000E+00   -8.19043742E-07   -8.88916481E-07   -1.30639025E-06    2.87272414E-07    1.83595323E-11    2.24835105E-11    4.08430428E-11   
                   9.00000000E+01    2.00000000E+00   -8.25192748E-07   -8.83760956E-07    1.50838204E-02   -1.28255082E-02    1.83717385E-11    4.92620952E-03    4.92620954E-03   
                   9.00000000E+01    4.00000000E+00   -8.39705975E-07   -8.67866046E-07    2.98891146E-02   -2.59864634E-02    1.83255081E-11    1.97123058E-02    1.97123058E-02   
                   9.00000000E+01    6.00000000E+00   -8.61806623E-07   -8.40547751E-07    4.41185318E-02   -3.98027821E-02    1.82115761E-11    4.43681640E-02    4.43681640E-02   
                   9.00000000E+01    8.00000000E+00   -8.90147845E-07   -8.00776351E-07    5.74449211E-02   -5.45635275E-02    1.80152237E-11    7.88803335E-02    7.88803335E-02   
                   9.00000000E+01    1.00000000E+01   -9.22737936E-07   -7.47288028E-07    6.94978427E-02   -7.05082060E-02    1.77171336E-11    1.23167488E-01    1.23167488E-01   
                   9.00000000E+01    1.20000000E+01   -9.56855053E-07   -6.78751496E-07    7.98557314E-02   -8.78053906E-02    1.72947840E-11    1.77019000E-01    1.77019000E-01   
                   9.00000000E+01    1.40000000E+01   -9.88970821E-07   -5.93996560E-07    8.80442836E-02   -1.06528190E-01    1.67245223E-11    2.40018321E-01    2.40018321E-01   
                   9.00000000E+01    1.60000000E+01   -1.01470904E-06   -4.92308679E-07    9.35431562E-02   -1.26627107E-01    1.59844521E-11    3.11454308E-01    3.11454308E-01   
                   9.00000000E+01    1.80000000E+01   -1.02887237E-06   -3.73787027E-07    9.58031365E-02   -1.47901786E-01    1.50582203E-11    3.90225758E-01    3.90225758E-01   
                   9.00000000E+01    2.00000000E+01   -1.02557497E-06   -2.39752528E-07    9.42757336E-02   -1.69974293E-01    1.39396900E-11    4.74747104E-01    4.74747104E-01   
                   9.00000000E+01    2.20000000E+01   -9.98520872E-07   -9.31766875E-08    8.84565104E-02   -1.92267861E-01    1.26383235E-11    5.62866395E-01    5.62866395E-01   
                   9.00000000E+01    2.40000000E+01   -9.41463426E-07    6.09176576E-08    7.79422811E-02   -2.13996236E-01    1.11848784E-11    6.51809955E-01    6.51809955E-01   
                   9.00000000E+01    2.60000000E+01   -8.48867871E-07    2.15154407E-07    6.25004400E-02   -2.34169744E-01    9.63674853E-12    7.38170904E-01    7.38170904E-01   
                   9.00000000E+01    2.80000000E+01   -7.16774690E-07    3.59692288E-07    4.21461610E-02   -2.51624554E-01    8.08199211E-12    8.17960332E-01    8.17960332E-01   
                   9.00000000E+01    3.00000000E+01   -5.43823753E-07    4.82407862E-07    1.72201402E-02   -2.65080997E-01    6.64084457E-12    8.86739259E-01    8.86739259E-01   
                   9.00000000E+01    3.20000000E+01   -3.32350036E-07    5.69478275E-07   -1.15437186E-02   -2.73234851E-01    5.46338107E-12    9.39845660E-01    9.39845660E-01   
                   9.00000000E+01    3.40000000E+01   -8.94047069E-08    6.06447048E-07   -4.29741952E-02   -2.74881866E-01    4.72208046E-12    9.72722809E-01    9.72722809E-01   
                   9.00000000E+01    3.60000000E+01    1.72500305E-07    5.79806382E-07   -7.54575294E-02   -2.69070471E-01    4.59843456E-12    9.81342529E-01    9.81342529E-01   
                   9.00000000E+01    3.80000000E+01    4.35167251E-07    4.79047719E-07   -1.06986122E-01   -2.55270821E-01    5.26351548E-12    9.62699878E-01    9.62699878E-01   
                   9.00000000E+01    4.00000000E+01    6.75259312E-07    2.99021354E-07   -1.35272956E-01   -2.33540848E-01    6.85355916E-12    9.15335696E-01    9.15335696E-01   
                   9.00000000E+01    4.20000000E+01    8.65830982E-07    4.23171292E-08   -1.57936663E-01   -2.04663125E-01    9.44304984E-12    8.39822915E-01    8.39822915E-01   
                   9.00000000E+01    4.40000000E+01    9.78949107E-07   -2.78746258E-07   -1.72751516E-01   -1.70221798E-01    1.30192730E-11    7.39135656E-01    7.39135656E-01   
                   9.00000000E+01    4.60000000E+01    9.89337609E-07   -6.41024182E-07   -1.77942990E-01   -1.32588720E-01    1.74634966E-11    6.18811773E-01    6.18811773E-01   
                   9.00000000E+01    4.80000000E+01    8.78746623E-07   -1.01085664E-06   -1.72494687E-01   -9.47938876E-02    2.25444052E-11    4.86824946E-01    4.86824946E-01   
                   9.00000000E+01    5.00000000E+01    6.40487551E-07   -1.34620688E-06   -1.56419168E-01   -6.02686101E-02    2.79287245E-11    3.53105736E-01    3.53105736E-01   
                   9.00000000E+01    5.20000000E+01    2.83342094E-07   -1.60082203E-06   -1.30937311E-01   -3.24700904E-02    3.32118359E-11    2.28693950E-01    2.28693950E-01   
                   9.00000000E+01    5.40000000E+01   -1.66086414E-07   -1.73025453E-06   -9.85118712E-02   -1.44212652E-02    3.79675978E-11    1.24564924E-01    1.24564924E-01   
                   9.00000000E+01    5.60000000E+01   -6.63486168E-07   -1.69914008E-06   -6.26938378E-02   -8.22562205E-03    4.18119706E-11    5.02425884E-02    5.02425885E-02   
                   9.00000000E+01    5.80000000E+01   -1.15007845E-06   -1.48867449E-06   -2.77658932E-02   -1.46374901E-02    4.44702765E-11    1.23804002E-02    1.23804002E-02   
                   9.00000000E+01    6.00000000E+01   -1.55917610E-06   -1.10288022E-06    1.79635811E-03   -3.27774804E-02    4.58342647E-11    1.35413969E-02    1.35413969E-02   
                   9.00000000E+01    6.20000000E+01   -1.82558413E-06   -5.72125688E-07    2.19831444E-02   -6.00747130E-02    4.59939874E-11    5.14244760E-02    5.14244761E-02   
                   9.00000000E+01    6.40000000E+01   -1.89662666E-06    4.74417977E-08    2.99287846E-02   -9.24893194E-02    4.52319397E-11    1.18752282E-01    1.18752282E-01   
                   9.00000000E+01    6.60000000E+01   -1.74293281E-06    6.79320033E-07    2.44841682E-02   -1.25021969E-01    4.39733810E-11    2.03951782E-01    2.03951782E-01   
                   9.00000000E+01    6.80000000E+01   -1.36674324E-06    1.23680907E-06    6.55615057E-03   -1.52458602E-01    4.26965533E-11    2.92628152E-01    2.92628152E-01   
                   9.00000000E+01    7.00000000E+01   -8.05575914E-07    1.63670332E-06   -2.08869601E-02   -1.70239779E-01    4.18177437E-11    3.69675576E-01    3.69675576E-01   
                   9.00000000E+01    7.20000000E+01   -1.29701454E-07    1.81430033E-06   -5.31900802E-02   -1.75299428E-01    4.15759396E-11    4.21715761E-01    4.21715761E-01   
                   9.00000000E+01    7.40000000E+01    5.67014813E-07    1.73681643E-06   -8.47377271E-02   -1.66701142E-01    4.19470113E-11    4.39442876E-01    4.39442876E-01   
                   9.00000000E+01    7.60000000E+01    1.18193138E-06    1.41218240E-06   -1.09923614E-01   -1.45920707E-01    4.26153387E-11    4.19415862E-01    4.19415862E-01   
                   9.00000000E+01    7.80000000E+01    1.62171941E-06    8.90784920E-07   -1.24188683E-01   -1.16682209E-01    4.30206131E-11    3.64896825E-01    3.64896825E-01   
                   9.00000000E+01    8.00000000E+01    1.82027835E-06    2.58988599E-07   -1.24918758E-01   -8.43430266E-02    4.24804696E-11    2.85488364E-01    2.85488364E-01   
                   9.00000000E+01    8.20000000E+01    1.75267104E-06   -3.75007218E-07   -1.12004044E-01   -5.49222008E-02    4.03692920E-11    1.95549742E-01    1.95549742E-01   
                   9.00000000E+01    8.40000000E+01    1.44178179E-06   -9.00634419E-07   -8.79213106E-02   -3.39535496E-02    3.63152666E-11    1.11627075E-01    1.11627075E-01   
                   9.00000000E+01    8.60000000E+01    9.55756419E-07   -1.22599639E-06   -5.72960951E-02   -2.53966937E-02    3.03671055E-11    4.93586249E-02    4.93586249E-02   
                   9.00000000E+01    8.80000000E+01    3.96220685E-07   -1.29610650E-06   -2.60158277E-02   -3.08397077E-02    2.30829513E-11    2.04569312E-02    2.04569312E-02   
                   9.00000000E+01    9.00000000E+01   -1.20652230E-07   -1.10432371E-06   -6.83483913E-05   -4.91726923E-02    1.55080048E-11    3.03849607E-02    3.03849607E-02   
                   9.00000000E+01    9.20000000E+01   -4.86459740E-07   -6.94332080E-07    1.56523928E-02   -7.68124524E-02    9.03195467E-12    7.72222355E-02    7.72222355E-02   
                   9.00000000E+01    9.40000000E+01   -6.21637918E-07   -1.52041617E-07    1.83188958E-02   -1.08437307E-01    5.14656153E-12    1.51980594E-01    1.51980594E-01   
                   9.00000000E+01    9.60000000E+01   -4.90844605E-07    4.10985638E-07    7.71284982E-03   -1.38077065E-01    5.15017144E-12    2.40328871E-01    2.40328871E-01   
                   9.00000000E+01    9.80000000E+01   -1.09462544E-07    8.79105833E-07   -1.37747926E-02   -1.60324464E-01    9.86220220E-12    3.25389563E-01    3.25389563E-01   
                   9.00000000E+01    1.00000000E+02    4.59996278E-07    1.15462384E-06   -4.16784281E-02   -1.71410088E-01    1.94119361E-11    3.91046725E-01    3.91046725E-01   
                   9.00000000E+01    1.02000000E+02    1.12058430E-06    1.17575431E-06   -7.04022590E-02   -1.69918216E-01    3.31514352E-11    4.25103707E-01    4.25103707E-01   
                   9.00000000E+01    1.04000000E+02    1.75979120E-06    9.27022785E-07   -9.43648085E-02   -1.57006095E-01    4.97155316E-11    4.21672495E-01    4.21672495E-01   
                   9.00000000E+01    1.06000000E+02    2.27050753E-06    4.40395077E-07   -1.09099641E-01   -1.36101674E-01    6.72194300E-11    3.82349383E-01    3.82349383E-01   
                   9.00000000E+01    1.08000000E+02    2.56980563E-06   -2.12523589E-07   -1.12090629E-01   -1.12166894E-01    8.35546434E-11    3.15990454E-01    3.15990454E-01   
                   9.00000000E+01    1.10000000E+02    2.61203502E-06   -9.35052510E-07   -1.03189757E-01   -9.06992164E-02    9.67239850E-11    2.37183634E-01    2.37183634E-01   
                   9.00000000E+01    1.12000000E+02    2.39419720E-06   -1.62340105E-06   -8.45628166E-02   -7.66854111E-02    1.05150504E-10    1.63758938E-01    1.63758938E-01   
                   9.00000000E+01    1.14000000E+02    1.95332168E-06   -2.18432301E-06   -6.02089042E-02   -7.37134785E-02    1.07904065E-10    1.13836101E-01    1.13836101E-01   
                   9.00000000E+01    1.16000000E+02    1.35718280E-06   -2.54922236E-06   -3.51804260E-02   -8.33976347E-02    1.04809560E-10    1.02954111E-01    1.02954111E-01   
                   9.00000000E+01    1.18000000E+02    6.90830194E-07   -2.68256485E-06   -1.46758399E-02   -1.05193834E-01    9.64267951E-11    1.41762773E-01    1.41762773E-01   
                   9.00000000E+01    1.20000000E+02    4.18745544E-08   -2.58383182E-06   -3.18214901E-03   -1.36599417E-01    8.39174731E-11    2.34608194E-01    2.34608194E-01   
                   9.00000000E+01    1.22000000E+02   -5.12727779E-07   -2.28358104E-06   -3.81278572E-03   -1.73659025E-01    6.88339555E-11    3.79152461E-01    3.79152461E-01   
                   9.00000000E+01    1.24000000E+02   -9.16359021E-07   -1.83517943E-06   -1.79309951E-02   -2.11653050E-01    5.28742282E-11    5.66976223E-01    5.66976223E-01   
                   9.00000000E+01    1.26000000E+02   -1.13784581E-06   -1.30429180E-06   -4.50844858E-02   -2.45829993E-01    3.76472151E-11    7.84958294E-01    7.84958294E-01   
                   9.00000000E+01    1.28000000E+02   -1.17194276E-06   -7.58232499E-07   -8.32185150E-02   -2.72057795E-01    2.44838938E-11    1.01713165E+00    1.01713165E+00   
                   9.00000000E+01    1.30000000E+02   -1.03596355E-06   -2.56906990E-07   -1.29092321E-01   -2.87303691E-01    1.43158818E-11    1.24668749E+00    1.24668749E+00   
                   9.00000000E+01    1.32000000E+02   -7.63831095E-07    1.53549710E-07   -1.78802986E-01   -2.89896485E-01    7.62798117E-12    1.45783069E+00    1.45783069E+00   
                   9.00000000E+01    1.34000000E+02   -3.98979644E-07    4.44016797E-07   -2.28321019E-01   -2.79569032E-01    4.47784612E-12    1.63726402E+00    1.63726402E+00   
                   9.00000000E+01    1.36000000E+02    1.25897449E-08    6.02696028E-07   -2.73958635E-01   -2.57313935E-01    4.56663169E-12    1.77517320E+00    1.77517320E+00   
                   9.00000000E+01    1.38000000E+02    4.28125761E-07    6.33094319E-07   -3.12718167E-01   -2.25107521E-01    7.34001813E-12    1.86567938E+00    1.86567938E+00   
                   9.00000000E+01    1.40000000E+02    8.12253161E-07    5.50506606E-07   -3.42497147E-01   -1.85565219E-01    1.20990615E-11    1.90680532E+00    1.90680532E+00   
                   9.00000000E+01    1.42000000E+02    1.13924639E-06    3.77846901E-07   -3.62152747E-01   -1.41587448E-01    1.81037496E-11    1.90005556E+00    1.90005556E+00   
                   9.00000000E+01    1.44000000E+02    1.39360738E-06    1.41552366E-07   -3.71447534E-01   -9.60428657E-02    2.46574637E-11    1.84973837E+00    1.84973837E+00   
                   9.00000000E+01    1.46000000E+02    1.56931007E-06   -1.31920266E-07   -3.70909653E-01   -5.15194248E-02    3.11663214E-11    1.76215981E+00    1.76215981E+00   
                   9.00000000E+01    1.48000000E+02    1.66816402E-06   -4.18715050E-07   -3.61643765E-01   -1.01570831E-02    3.71724993E-11    1.64480445E+00    1.64480445E+00   
                   9.00000000E+01    1.50000000E+02    1.69774366E-06   -6.99229136E-07   -3.45126212E-01    2.64382098E-02    4.23644387E-11    1.50559045E+00    1.50559045E+00   
                   9.00000000E+01    1.52000000E+02    1.66925782E-06   -9.58868795E-07   -3.23011013E-01    5.72098186E-02    4.65690976E-11    1.35225555E+00    1.35225555E+00   
                   9.00000000E+01    1.54000000E+02    1.59563027E-06   -1.18807842E-06   -2.96964744E-01    8.16114519E-02    4.97322450E-11    1.19190126E+00    1.19190126E+00   
                   9.00000000E+01    1.56000000E+02    1.48995114E-06   -1.38185403E-06   -2.68539826E-01    9.95322864E-02    5.18925127E-11    1.03069767E+00    1.03069767E+00   
                   9.00000000E+01    1.58000000E+02    1.36436243E-06   -1.53895135E-06   -2.39088556E-01    1.11203512E-01    5.31539394E-11    8.73734201E-01    8.73734201E-01   
                   9.00000000E+01    1.60000000E+02    1.22936706E-06   -1.66096896E-06   -2.09714887E-01    1.17100701E-01    5.36604287E-11    7.24990466E-01    7.24990466E-01   
                   9.00000000E+01    1.62000000E+02    1.09350331E-06   -1.75144250E-06   -1.81257713E-01    1.17852606E-01    5.35742117E-11    5.87397342E-01    5.87397342E-01   
                   9.00000000E+01    1.64000000E+02    9.63303361E-07   -1.81503922E-06   -1.54297909E-01    1.14163131E-01    5.30592471E-11    4.62958479E-01    4.62958479E-01   
                   9.00000000E+01    1.66000000E+02    8.43449285E-07   -1.85689970E-06   -1.29181349E-01    1.06749845E-01    5.22696073E-11    3.52905787E-01    3.52905787E-01   
                   9.00000000E+01    1.68000000E+02    7.37047710E-07   -1.88214041E-06   -1.06050954E-01    9.62997463E-02    5.13423179E-11    2.57867528E-01    2.57867528E-01   
                   9.00000000E+01    1.70000000E+02    6.45958585E-07   -1.89550738E-06   -8.48822146E-02    8.34411959E-02    5.03937943E-11    1.78033095E-01    1.78033095E-01   
                   9.00000000E+01    1.72000000E+02    5.71130042E-07   -1.90115761E-06   -6.55181812E-02    6.87298479E-02    4.95189119E-11    1.13303726E-01    1.13303726E-01   
                   9.00000000E+01    1.74000000E+02    5.12907031E-07   -1.90253852E-06   -4.77013809E-02    5.26459757E-02    4.87917797E-11    6.34227300E-02    6.34227301E-02   
                   9.00000000E+01    1.76000000E+02    4.71294386E-07   -1.90233528E-06   -3.11014256E-02    3.56005545E-02    4.82674032E-11    2.80820452E-02    2.80820452E-02   
                   9.00000000E+01    1.78000000E+02    4.46164518E-07   -1.90245880E-06   -1.53380847E-02    1.79477068E-02    4.79835835E-11    7.00420626E-03    7.00420630E-03   
                   9.00000000E+01    1.80000000E+02    4.37406062E-07   -1.90405230E-06   -3.64177603E-07    1.47417612E-06    4.79625599E-11    2.89757957E-11    7.69383555E-11   
                   9.00000000E+01    1.82000000E+02    4.45012976E-07   -1.90750032E-06    1.53373419E-02   -1.79447666E-02    4.82120623E-11    7.00259377E-03    7.00259382E-03   
                   9.00000000E+01    1.84000000E+02    4.69114585E-07   -1.91243037E-06    3.11006399E-02   -3.55976392E-02    4.87255796E-11    2.80788227E-02    2.80788228E-02   
                   9.00000000E+01    1.86000000E+02    5.09946680E-07   -1.91770417E-06    4.77005246E-02   -5.26431042E-02    4.94817794E-11    6.34179042E-02    6.34179043E-02   
                   9.00000000E+01    1.88000000E+02    5.67762944E-07   -1.92140128E-06    6.55172287E-02   -6.87270419E-02    5.04431413E-11    1.13297311E-01    1.13297311E-01   
                   9.00000000E+01    1.90000000E+02    6.42685584E-07   -1.92080512E-06    8.48811430E-02   -8.34384811E-02    5.15540013E-11    1.78025116E-01    1.78025116E-01   
                   9.00000000E+01    1.92000000E+02    7.34494990E-07   -1.91240731E-06    1.06049744E-01   -9.62971532E-02    5.27383507E-11    2.57858029E-01    2.57858029E-01   
                   9.00000000E+01    1.94000000E+02    8.42361439E-07   -1.89195290E-06    1.29179989E-01   -1.06747409E-01    5.38978995E-11    3.52894837E-01    3.52894837E-01   
                   9.00000000E+01    1.96000000E+02    9.64527996E-07   -1.85455431E-06    1.54296393E-01   -1.14160893E-01    5.49110929E-11    4.62946179E-01    4.62946180E-01   
                   9.00000000E+01    1.98000000E+02    1.09796349E-06   -1.79490514E-06    1.81256046E-01   -1.17850611E-01    5.56339400E-11    5.87383837E-01    5.87383837E-01   
                   9.00000000E+01    2.00000000E+02    1.23801771E-06   -1.70762493E-06    2.09713085E-01   -1.17098997E-01    5.59036457E-11    7.24975949E-01    7.24975949E-01   
                   9.00000000E+01    2.02000000E+02    1.37812712E-06   -1.58776011E-06    2.39086649E-01   -1.11202146E-01    5.55460792E-11    8.73718924E-01    8.73718924E-01   
                   9.00000000E+01    2.04000000E+02    1.50963673E-06   -1.43145266E-06    2.68537861E-01   -9.95313024E-02    5.43880031E-11    1.03068194E+00    1.03068194E+00   
                   9.00000000E+01    2.06000000E+02    1.62181901E-06   -1.23676505E-06    2.96962782E-01   -8.16108872E-02    5.22746525E-11    1.19188546E+00    1.19188546E+00   
                   9.00000000E+01    2.08000000E+02    1.70217934E-06   -1.00461601E-06    3.23009133E-01   -5.72096968E-02    4.90926360E-11    1.35224011E+00    1.35224011E+00   
                   9.00000000E+01    2.10000000E+02    1.73713385E-06   -7.39738642E-07    3.45124504E-01   -2.64385361E-02    4.47971918E-11    1.50557585E+00    1.50557585E+00   
                   9.00000000E+01    2.12000000E+02    1.71312251E-06   -4.51523813E-07    3.61642329E-01    1.01563278E-02    3.94415959E-11    1.64479120E+00    1.64479120E+00   
                   9.00000000E+01    2.14000000E+02    1.61817380E-06   -1.54565654E-07    3.70908590E-01    5.15182882E-02    3.32050884E-11    1.76214842E+00    1.76214842E+00   
                   9.00000000E+01    2.16000000E+02    1.44386272E-06    1.31306701E-07    3.71446939E-01    9.60414271E-02    2.64142722E-11    1.84972935E+00    1.84972935E+00   
                   9.00000000E+01    2.18000000E+02    1.18750560E-06    3.81730754E-07    3.62152698E-01    1.41585818E-01    1.95518644E-11    1.90004932E+00    1.90004932E+00   
                   9.00000000E+01    2.20000000E+02    8.54321870E-07    5.69425600E-07    3.42497694E-01    1.85563535E-01    1.32463542E-11    1.90680218E+00    1.90680218E+00   
                   9.00000000E+01    2.22000000E+02    4.59184018E-07    6.66803965E-07    3.12719320E-01    2.25105942E-01    8.23697306E-12    1.86567951E+00    1.86567951E+00   
                   9.00000000E+01    2.24000000E+02    2.75006387E-08    6.49508263E-07    2.73960359E-01    2.57312625E-01    5.31076523E-12    1.77517660E+00    1.77517660E+00   
                   9.00000000E+01    2.26000000E+02   -4.05234853E-07    5.00588935E-07    2.28323226E-01    2.79568149E-01    5.21258793E-12    1.63727048E+00    1.63727048E+00   
                   9.00000000E+01    2.28000000E+02   -7.95612117E-07    2.14809554E-07    1.78805540E-01    2.89896160E-01    8.53434738E-12    1.45783979E+00    1.45783979E+00   
                   9.00000000E+01    2.30000000E+02   -1.09636836E-06   -1.97650355E-07    1.29095045E-01    2.87304011E-01    1.55959874E-11    1.24669864E+00    1.24669864E+00   
                   9.00000000E+01    2.32000000E+02   -1.26220991E-06   -7.08957070E-07    8.32212065E-02    2.72058790E-01    2.63365240E-11    1.01714408E+00    1.01714408E+00   
                   9.00000000E+01    2.34000000E+02   -1.25684694E-06   -1.27370014E-06    4.50869382E-02    2.45831626E-01    4.02372206E-11    7.84971161E-01    7.84971161E-01   
                   9.00000000E+01    2.36000000E+02   -1.06027537E-06   -1.83192968E-06    1.79330214E-02    2.11655217E-01    5.62992281E-11    5.66988662E-01    5.66988662E-01   
                   9.00000000E+01    2.38000000E+02   -6.74998343E-07   -2.31537586E-06    3.81424252E-03    1.73661563E-01    7.30934021E-11    3.79163679E-01    3.79163679E-01   
                   9.00000000E+01    2.40000000E+02   -1.29730804E-07   -2.65646841E-06    3.18295632E-03    1.36602125E-01    8.88901639E-11    2.34617556E-01    2.34617556E-01   
                   9.00000000E+01    2.42000000E+02    5.20726221E-07   -2.79907907E-06    1.46759930E-02    1.05196496E-01    1.01862993E-10    1.41769867E-01    1.41769867E-01   
                   9.00000000E+01    2.44000000E+02    1.20026732E-06   -2.70927151E-06    3.51799966E-02    8.34000494E-02    1.10342708E-10    1.02958793E-01    1.02958793E-01   
                   9.00000000E+01    2.46000000E+02    1.82093847E-06   -2.38393910E-06    6.02080290E-02    7.37154885E-02    1.13084550E-10    1.13838500E-01    1.13838500E-01   
                   9.00000000E+01    2.48000000E+02    2.29607611E-06   -1.85520525E-06    8.45616754E-02    7.66869242E-02    1.09500237E-10    1.63759429E-01    1.63759429E-01   
                   9.00000000E+01    2.50000000E+02    2.55513544E-06   -1.18895519E-06    1.03188543E-01    9.07002169E-02    9.98062819E-11    2.37182766E-01    2.37182766E-01   
                   9.00000000E+01    2.52000000E+02    2.55747138E-06   -4.76851831E-07    1.12089517E-01    1.12167440E-01    8.50497933E-11    3.15988860E-01    3.15988860E-01   
                   9.00000000E+01    2.54000000E+02    2.30210090E-06    1.77485195E-07    1.09098759E-01    1.36101881E-01    6.69934521E-11    3.82347677E-01    3.82347677E-01   
                   9.00000000E+01    2.56000000E+02    1.83090608E-06    6.76060037E-07    9.43642208E-02    1.57006113E-01    4.78687519E-11    4.21671173E-01    4.21671173E-01   
                   9.00000000E+01    2.58000000E+02    1.22384249E-06    9.44638409E-07    7.04019590E-02    1.69918193E-01    3.00352865E-11    4.25103077E-01    4.25103077E-01   
                   9.00000000E+01    2.60000000E+02    5.86323178E-07    9.47719966E-07    4.16783502E-02    1.71410143E-01    1.56067789E-11    3.91046879E-01    3.91046879E-01   
                   9.00000000E+01    2.62000000E+02    3.07161138E-08    6.96925785E-07    1.37748344E-02    1.60324664E-01    6.11541207E-12    3.25390383E-01    3.25390383E-01   
                   9.00000000E+01    2.64000000E+02   -3.44608144E-07    2.50534944E-07   -7.71279837E-03    1.38077418E-01    2.28107940E-12    2.40330088E-01    2.40330088E-01   
                   9.00000000E+01    2.66000000E+02   -4.74421519E-07   -2.96292990E-07   -1.83189226E-02    1.08437769E-01    3.93158149E-12    1.51981867E-01    1.51981867E-01   
                   9.00000000E+01    2.68000000E+02   -3.39849106E-07   -8.29018378E-07   -1.56525421E-02    7.68129471E-02    1.00878913E-11    7.72232493E-02    7.72232493E-02   
                   9.00000000E+01    2.70000000E+02    2.73633364E-08   -1.23554814E-06    6.80850965E-05    4.91731380E-02    1.91929693E-11    3.03855109E-02    3.03855110E-02   
                   9.00000000E+01    2.72000000E+02    5.50649877E-07   -1.42790483E-06    2.60155047E-02    3.08400468E-02    2.94320420E-11    2.04569829E-02    2.04569829E-02   
                   9.00000000E+01    2.74000000E+02    1.12340752E-06   -1.35918891E-06    5.72957928E-02    2.53969138E-02    3.90743622E-11    4.93583301E-02    4.93583301E-02   
                   9.00000000E+01    2.76000000E+02    1.62968207E-06   -1.03228566E-06    8.79211074E-02    3.39536913E-02    4.67654634E-11    1.11626747E-01    1.11626747E-01   
                   9.00000000E+01    2.78000000E+02    1.96639463E-06   -4.98598225E-07    1.12003988E-01    5.49223501E-02    5.17144858E-11    1.95549790E-01    1.95549790E-01   
                   9.00000000E+01    2.80000000E+02    2.06248910E-06    1.52704092E-07    1.24918844E-01    8.43432945E-02    5.37486268E-11    2.85489204E-01    2.85489204E-01   
                   9.00000000E+01    2.82000000E+02    1.89119134E-06    8.12395663E-07    1.24188848E-01    1.16682702E-01    5.32385776E-11    3.64898786E-01    3.64898786E-01   
                   9.00000000E+01    2.84000000E+02    1.47321629E-06    1.37195449E-06    1.09923739E-01    1.45921497E-01    5.09267924E-11    4.19419103E-01    4.19419103E-01   
                   9.00000000E+01    2.86000000E+02    8.70804852E-07    1.74303900E-06    8.47376610E-02    1.66702241E-01    4.77080505E-11    4.39447342E-01    4.39447342E-01   
                   9.00000000E+01    2.88000000E+02    1.74406592E-07    1.87191911E-06    5.31896676E-02    1.75300780E-01    4.44158221E-11    4.21721168E-01    4.21721168E-01   
                   9.00000000E+01    2.90000000E+02   -5.14798487E-07    1.74645516E-06    2.08860746E-02    1.70241260E-01    4.16590655E-11    3.69681446E-01    3.69681446E-01   
                   9.00000000E+01    2.92000000E+02   -1.10279486E-06    1.39497158E-06   -6.55757946E-03    1.52460035E-01    3.97361485E-11    2.92633880E-01    2.92633880E-01   
                   9.00000000E+01    2.94000000E+02   -1.51761377E-06    8.78080050E-07   -2.44861371E-02    1.25023157E-01    3.86312364E-11    2.03956726E-01    2.03956726E-01   
                   9.00000000E+01    2.96000000E+02   -1.71878010E-06    2.75785091E-07   -2.99312122E-02    9.24900720E-02    3.80794011E-11    1.18755858E-01    1.18755858E-01   
                   9.00000000E+01    2.98000000E+02   -1.70028312E-06   -3.27173858E-07   -2.19858807E-02    6.00748796E-02    3.76740473E-11    5.14262395E-02    5.14262395E-02   
                   9.00000000E+01    3.00000000E+02   -1.48742746E-06   -8.54869900E-07   -1.79920530E-03    3.27769727E-02    3.69858823E-11    1.35411073E-02    1.35411073E-02   
                   9.00000000E+01    3.02000000E+02   -1.12902741E-06   -1.25040375E-06    2.77631537E-02    1.46362952E-02    3.56660292E-11    1.23780490E-02    1.23780490E-02   
                   9.00000000E+01    3.04000000E+02   -6.87034113E-07   -1.48155239E-06    6.26914157E-02    8.22380349E-03    3.35146782E-11    5.02383962E-02    5.02383962E-02   
                   9.00000000E+01    3.06000000E+02   -2.25787797E-07   -1.54167063E-06    9.85099412E-02    1.44189526E-02    3.05077357E-11    1.24559307E-01    1.24559307E-01   
                   9.00000000E+01    3.08000000E+02    1.97255449E-07   -1.44655204E-06    1.30935993E-01    3.24674612E-02    2.67842452E-11    2.28687467E-01    2.28687467E-01   
                   9.00000000E+01    3.10000000E+02    5.38097943E-07   -1.22852848E-06    1.56418517E-01    6.02658662E-02    2.26047849E-11    3.53099020E-01    3.53099020E-01   
                   9.00000000E+01    3.12000000E+02    7.69572819E-07   -9.29299350E-07    1.72494692E-01    9.47912313E-02    1.82946200E-11    4.86818637E-01    4.86818637E-01   
                   9.00000000E+01    3.14000000E+02    8.81663955E-07   -5.92871367E-07    1.77943579E-01    1.32586333E-01    1.41852683E-11    6.18806454E-01    6.18806454E-01   
                   9.00000000E+01    3.16000000E+02    8.79395725E-07   -2.59657011E-07    1.72752573E-01    1.70219826E-01    1.05652842E-11    7.39131809E-01    7.39131809E-01   
                   9.00000000E+01    3.18000000E+02    7.79162278E-07    3.76579925E-08    1.57938043E-01    2.04661665E-01    7.64678707E-12    8.39820886E-01    8.39820886E-01   
                   9.00000000E+01    3.20000000E+02    6.04399847E-07    2.76300016E-07    1.35274500E-01    2.33539952E-01    5.54982291E-12    9.15335683E-01    9.15335683E-01   
                   9.00000000E+01    3.22000000E+02    3.81376743E-07    4.43816656E-07    1.06987676E-01    2.55270490E-01    4.30299477E-12    9.62701934E-01    9.62701934E-01   