##File Type: Far field
##File Format: 5
##Source: RWG_wire_XY_rad_theta450.008
##Date: 2020-09-16 10:50:29
** File exported by POSTFEKO version 2018-319328 (x64)

#Configuration Name: StandardConfiguration1
#Request Name: FarField1
#Frequency: 3.00000000E+08
#Coordinate System: Spherical
#No. of Theta Samples: 1
#No. of Phi Samples: 181
#Result Type: RCS
#Incident Wave Direction: (4.50000000E+01, 0.00000000E+00)
#No. of Header Lines: 1
#                 "Theta"           "Phi"             "Re(Etheta)"      "Im(Etheta)"      "Re(Ephi)"        "Im(Ephi)"        "RCS(Theta)"      "RCS(Phi)"        "RCS(Total)"      
                   9.00000000E+01    0.00000000E+00   -1.02808171E-04   -3.62156619E-04   -4.07180190E-06   -1.76065834E-05    1.78099321E-06    4.10381661E-09    1.78509703E-06   
                   9.00000000E+01    2.00000000E+00   -1.04071733E-04   -3.61382313E-04    1.35918210E-02   -1.17516007E-02    1.77723794E-06    4.05689840E-03    4.05867564E-03   
                   9.00000000E+01    4.00000000E+00   -1.07830409E-04   -3.59004202E-04    2.69346099E-02   -2.37760978E-02    1.76571851E-06    1.62203700E-02    1.62221358E-02   
                   9.00000000E+01    6.00000000E+00   -1.13967854E-04   -3.54854985E-04    3.97573211E-02   -3.63680420E-02    1.74560375E-06    3.64836807E-02    3.64854263E-02   
                   9.00000000E+01    8.00000000E+00   -1.22276645E-04   -3.48666772E-04    5.17663583E-02   -4.97760737E-02    1.71556212E-06    6.48099678E-02    6.48116834E-02   
                   9.00000000E+01    1.00000000E+01   -1.32439443E-04   -3.40088791E-04    6.26312694E-02   -6.42039625E-02    1.67384800E-06    1.01094249E-01    1.01095923E-01   
                   9.00000000E+01    1.20000000E+01   -1.44005543E-04   -3.28714720E-04    7.19784597E-02   -7.97915591E-02    1.61843498E-06    1.45111315E-01    1.45112934E-01   
                   9.00000000E+01    1.40000000E+01   -1.56366094E-04   -3.14121659E-04    7.93905222E-02   -9.65931612E-02    1.54720638E-06    1.96451251E-01    1.96452798E-01   
                   9.00000000E+01    1.60000000E+01   -1.68732570E-04   -2.95922503E-04    8.44130110E-02   -1.14553853E-01    1.45821180E-06    2.54445651E-01    2.54447109E-01   
                   9.00000000E+01    1.80000000E+01   -1.80124526E-04   -2.73832573E-04    8.65705131E-02   -1.33485231E-01    1.34999417E-06    3.18089531E-01    3.18090881E-01   
                   9.00000000E+01    2.00000000E+01   -1.89373939E-04   -2.47749602E-04    8.53936387E-02   -1.53042951E-01    1.22198346E-06    3.85966252E-01    3.85967474E-01   
                   9.00000000E+01    2.20000000E+01   -1.95154291E-04   -2.17843515E-04    8.04579338E-02   -1.72709620E-01    1.07493984E-06    4.56185544E-01    4.56186619E-01   
                   9.00000000E+01    2.40000000E+01   -1.96042489E-04   -1.84648833E-04    7.14346010E-02   -1.91787610E-01    9.11411832E-07    5.26347328E-01    5.26348239E-01   
                   9.00000000E+01    2.60000000E+01   -1.90620164E-04   -1.49148298E-04    5.81512166E-02   -2.09407131E-01    7.36153845E-07    5.93546258E-01    5.93546994E-01   
                   9.00000000E+01    2.80000000E+01   -1.77617366E-04   -1.12831969E-04    4.06583656E-02   -2.24555112E-01    5.56426099E-07    6.54432718E-01    6.54433275E-01   
                   9.00000000E+01    3.00000000E+01   -1.56095743E-04   -7.77123909E-05    1.92954191E-02   -2.36129718E-01    3.82081714E-07    7.05344814E-01    7.05345196E-01   
                   9.00000000E+01    3.20000000E+01   -1.25659875E-04   -4.62748304E-05   -5.25412961E-03   -2.43023435E-01    2.25337195E-07    7.42521653E-01    7.42521878E-01   
                   9.00000000E+01    3.40000000E+01   -8.66751611E-05   -2.13433201E-05   -3.19297535E-02   -2.44234260E-01    1.00130360E-07    7.62400235E-01    7.62400335E-01   
                   9.00000000E+01    3.60000000E+01   -4.04596606E-05   -5.84979492E-06   -5.92966762E-02   -2.38999691E-01    2.10009718E-08    7.61986363E-01    7.61986384E-01   
                   9.00000000E+01    3.80000000E+01    1.05921211E-05   -2.50592100E-06   -8.55969860E-02   -2.26942175E-01    1.48877147E-09    7.39274489E-01    7.39274490E-01   
                   9.00000000E+01    4.00000000E+01    6.30005503E-05   -1.33952963E-05   -1.08858375E-01   -2.08208239E-01    5.21316299E-08    6.93673918E-01    6.93673970E-01   
                   9.00000000E+01    4.20000000E+01    1.12351598E-04   -3.95261326E-05   -1.27063243E-01   -1.83577841E-01    1.78256438E-07    6.26381945E-01    6.26382123E-01   
                   9.00000000E+01    4.40000000E+01    1.53637900E-04   -8.04080532E-05   -1.38371179E-01   -1.54517141E-01    3.77871509E-07    5.40632030E-01    5.40632408E-01   
                   9.00000000E+01    4.60000000E+01    1.81795352E-04   -1.33736135E-04   -1.41375659E-01   -1.23148707E-01    6.40066878E-07    4.41741618E-01    4.41742258E-01   
                   9.00000000E+01    4.80000000E+01    1.92403272E-04   -1.95274372E-04   -1.35363063E-01   -9.21195424E-02    9.44376571E-07    3.36893953E-01    3.36894897E-01   
                   9.00000000E+01    5.00000000E+01    1.82471806E-04   -2.59022757E-04   -1.20531322E-01   -6.43600852E-02    1.26152222E-06    2.34614393E-01    2.34615654E-01   
                   9.00000000E+01    5.20000000E+01    1.51196631E-04   -3.17722331E-04   -9.81199768E-02   -4.27459804E-02    1.55581597E-06    1.43944617E-01    1.43946173E-01   
                   9.00000000E+01    5.40000000E+01    1.00529290E-04   -3.63699818E-04   -7.04063868E-02   -2.96966280E-02    1.78924629E-06    7.33743973E-02    7.33761866E-02   
                   9.00000000E+01    5.60000000E+01    3.54037958E-05   -3.89982556E-04   -4.05364001E-02   -2.67664554E-02    1.92692505E-06    2.96521468E-02    2.96540737E-02   
                   9.00000000E+01    5.80000000E+01   -3.65130746E-05   -3.91536865E-04   -1.21823688E-02   -3.43011091E-02    1.94319219E-06    1.66501420E-02    1.66520852E-02   
                   9.00000000E+01    6.00000000E+01   -1.05614500E-04   -3.66416051E-04    1.09455126E-02   -5.12357060E-02    1.82734060E-06    3.44934535E-02    3.44952809E-02   
                   9.00000000E+01    6.20000000E+01   -1.61655536E-04   -3.16568380E-04    2.56724279E-02   -7.51013601E-02    1.58773645E-06    7.91591856E-02    7.91607733E-02   
                   9.00000000E+01    6.40000000E+01   -1.95410609E-04   -2.48068852E-04    2.99233348E-02   -1.02277609E-01    1.25316197E-06    1.42705153E-01    1.42706406E-01   
                   9.00000000E+01    6.60000000E+01   -2.00419196E-04   -1.70611964E-04    2.31677376E-02   -1.28484464E-01    8.70551617E-07    2.14193808E-01    2.14194679E-01   
                   9.00000000E+01    6.80000000E+01   -1.74475646E-04   -9.62325366E-05    6.63820000E-03   -1.49455656E-01    4.98915730E-07    2.81248679E-01    2.81249178E-01   
                   9.00000000E+01    7.00000000E+01   -1.20508267E-04   -3.73883833E-05   -1.67543490E-02   -1.61685261E-01    2.00058298E-07    3.32039099E-01    3.32039299E-01   
                   9.00000000E+01    7.20000000E+01   -4.65658546E-05   -4.70728525E-06   -4.28321641E-02   -1.63106307E-01    2.75271042E-08    3.57365735E-01    3.57365762E-01   
                   9.00000000E+01    7.40000000E+01    3.52147259E-05   -4.82779280E-06   -6.68445225E-02   -1.53553582E-01    1.58761579E-08    3.52447650E-01    3.52447666E-01   
                   9.00000000E+01    7.60000000E+01    1.10573044E-04   -3.88077654E-05   -8.43306348E-02   -1.34890537E-01    1.72566940E-07    3.18018561E-01    3.18018734E-01   
                   9.00000000E+01    7.80000000E+01    1.65709075E-04   -1.01509993E-04   -9.19866184E-02   -1.10740300E-01    4.74553609E-07    2.60437428E-01    2.60437902E-01   
                   9.00000000E+01    8.00000000E+01    1.89992870E-04   -1.82200236E-04   -8.83523093E-02   -8.58433613E-02    8.70776808E-07    1.90697354E-01    1.90698224E-01   
                   9.00000000E+01    8.20000000E+01    1.78223135E-04   -2.66339316E-04   -7.41563810E-02   -6.51512623E-02    1.29056774E-06    1.22444903E-01    1.22446194E-01   
                   9.00000000E+01    8.40000000E+01    1.31907124E-04   -3.38273565E-04   -5.22221586E-02   -5.28352144E-02    1.65660571E-06    6.93502021E-02    6.93518587E-02   
                   9.00000000E+01    8.60000000E+01    5.92173958E-05   -3.84296509E-04   -2.69297685E-02   -5.14213492E-02    1.89991594E-06    4.23407219E-02    4.23426218E-02   
                   9.00000000E+01    8.80000000E+01   -2.64369105E-05   -3.95433609E-04   -3.33180798E-03   -6.12485483E-02    1.97375773E-06    4.72807886E-02    4.72827624E-02   
                   9.00000000E+01    9.00000000E+01   -1.08970852E-04   -3.69330904E-04    1.38956118E-02   -8.03807727E-02    1.86334098E-06    8.36185985E-02    8.36204618E-02   
                   9.00000000E+01    9.20000000E+01   -1.72792911E-04   -3.10809481E-04    2.14393344E-02   -1.05006687E-01    1.58914227E-06    1.44337952E-01    1.44339541E-01   
                   9.00000000E+01    9.40000000E+01   -2.05905887E-04   -2.30941298E-04    1.80535401E-02   -1.30248462E-01    1.20299270E-06    2.17279988E-01    2.17281191E-01   
                   9.00000000E+01    9.60000000E+01   -2.02269084E-04   -1.44836635E-04    4.82270707E-03   -1.51206435E-01    7.77738119E-07    2.87602057E-01    2.87602835E-01   
                   9.00000000E+01    9.80000000E+01   -1.62918337E-04   -6.86251640E-05   -1.50770900E-02   -1.64010918E-01    3.92721672E-07    3.40886678E-01    3.40887070E-01   
                   9.00000000E+01    1.00000000E+02   -9.56258266E-05   -1.62879309E-05   -3.70651612E-02   -1.66650985E-01    1.18244463E-07    3.66264174E-01    3.66264292E-01   
                   9.00000000E+01    1.02000000E+02   -1.32126537E-05    2.98571565E-06   -5.61379881E-02   -1.59402622E-01    2.30578720E-09    3.58903957E-01    3.58903960E-01   
                   9.00000000E+01    1.04000000E+02    6.90794887E-05   -1.36165193E-05   -6.79299738E-02   -1.44771336E-01    6.22963416E-08    3.21362573E-01    3.21362635E-01   
                   9.00000000E+01    1.06000000E+02    1.36565779E-04   -6.22771093E-05   -6.96265765E-02   -1.26973580E-01    2.83103371E-07    2.63518679E-01    2.63518962E-01   
                   9.00000000E+01    1.08000000E+02    1.77814406E-04   -1.33598230E-04   -6.05444246E-02   -1.11080276E-01    6.21613746E-07    2.01117914E-01    2.01118536E-01   
                   9.00000000E+01    1.10000000E+02    1.86537775E-04   -2.14647434E-04   -4.22734392E-02   -1.02011564E-01    1.01624066E-06    1.53226818E-01    1.53227834E-01   
                   9.00000000E+01    1.12000000E+02    1.62369880E-04   -2.91509801E-04   -1.83742175E-02   -1.03591591E-01    1.39916410E-06    1.39095016E-01    1.39096415E-01   
                   9.00000000E+01    1.14000000E+02    1.10482528E-04   -3.51799592E-04    6.28407365E-03   -1.17844984E-01    1.70864114E-06    1.75010961E-01    1.75012670E-01   
                   9.00000000E+01    1.16000000E+02    4.02358283E-05   -3.86652591E-04    2.63944889E-02   -1.44653080E-01    1.89901922E-06    2.71699792E-01    2.71701691E-01   
                   9.00000000E+01    1.18000000E+02   -3.67708548E-05   -3.91882703E-04    3.71136506E-02   -1.81806188E-01    1.94683427E-06    4.32671612E-01    4.32673559E-01   
                   9.00000000E+01    1.20000000E+02   -1.08810985E-04   -3.68193604E-04    3.48278849E-02   -2.25407994E-01    1.85236296E-06    6.53724534E-01    6.53726386E-01   
                   9.00000000E+01    1.22000000E+02   -1.65900283E-04   -3.20535583E-04    1.76626032E-02   -2.70526885E-01    1.63697038E-06    9.23587561E-01    9.23589198E-01   
                   9.00000000E+01    1.24000000E+02   -2.01126614E-04   -2.56846967E-04   -1.43243799E-02   -3.11956602E-01    1.33734181E-06    1.22549897E+00    1.22550031E+00   
                   9.00000000E+01    1.26000000E+02   -2.11293365E-04   -1.86495292E-04   -5.92603104E-02   -3.44947602E-01    9.98088763E-07    1.53938835E+00    1.53938935E+00   
                   9.00000000E+01    1.28000000E+02   -1.96881056E-04   -1.18733222E-04   -1.13827002E-01   -3.65795702E-01    6.64254934E-07    1.84427928E+00    1.84427994E+00   
                   9.00000000E+01    1.30000000E+02   -1.61453623E-04   -6.14231248E-05   -1.73789984E-01   -3.72216546E-01    3.74981411E-07    2.12055136E+00    2.12055174E+00   
                   9.00000000E+01    1.32000000E+02   -1.10708742E-04   -2.01872600E-05   -2.34583895E-01   -3.63481724E-01    1.59139903E-07    2.35177826E+00    2.35177842E+00   
                   9.00000000E+01    1.34000000E+02   -5.13919097E-05    1.96502096E-06   -2.91859949E-01   -3.40334950E-01    3.32379207E-08    2.52596751E+00    2.52596755E+00   
                   9.00000000E+01    1.36000000E+02    9.73038755E-06    4.57301536E-06   -3.41924875E-01   -3.04737686E-01    1.45258336E-09    2.63614404E+00    2.63614404E+00   
                   9.00000000E+01    1.38000000E+02    6.66966483E-05   -1.06737274E-05   -3.82031154E-01   -2.59509752E-01    5.73324493E-08    2.68032032E+00    2.68032038E+00   
                   9.00000000E+01    1.40000000E+02    1.14899191E-04   -4.05353555E-05   -4.10508662E-01   -2.07932423E-01    1.86547006E-07    2.66096987E+00    2.66097006E+00   
                   9.00000000E+01    1.42000000E+02    1.51341585E-04   -8.08911611E-05   -4.26752755E-01   -1.53372244E-01    3.70050151E-07    2.58416050E+00    2.58416087E+00   
                   9.00000000E+01    1.44000000E+02    1.74638713E-04   -1.27369005E-04   -4.31100471E-01   -9.89677207E-02    5.87120230E-07    2.45851272E+00    2.45851331E+00   
                   9.00000000E+01    1.46000000E+02    1.84823164E-04   -1.75859642E-04   -4.24634226E-01   -4.74025940E-02    8.17897507E-07    2.29413210E+00    2.29413292E+00   
                   9.00000000E+01    1.48000000E+02    1.83032920E-04   -2.22877793E-04   -4.08952294E-01   -7.72160123E-04    1.04521492E-06    2.10163218E+00    2.10163322E+00   
                   9.00000000E+01    1.50000000E+02    1.71151530E-04   -2.65764146E-04   -3.85939691E-01    3.94644448E-02    1.25567482E-06    1.89132533E+00    1.89132659E+00   
                   9.00000000E+01    1.52000000E+02    1.51458443E-04   -3.02746224E-04   -3.57564204E-01    7.24619621E-02    1.44004244E-06    1.67262032E+00    1.67262176E+00   
                   9.00000000E+01    1.54000000E+02    1.26329069E-04   -3.32889928E-04   -3.25712578E-01    9.79168813E-02    1.59309834E-06    1.45363250E+00    1.45363410E+00   
                   9.00000000E+01    1.56000000E+02    9.80058265E-05   -3.55978542E-04   -2.92072977E-01    1.15965923E-01    1.71312133E-06    1.24098840E+00    1.24099011E+00   
                   9.00000000E+01    1.58000000E+02    6.84459099E-05   -3.72354076E-04   -2.58062767E-01    1.27073163E-01    1.80116807E-06    1.03979152E+00    1.03979333E+00   
                   9.00000000E+01    1.60000000E+02    3.92401308E-05   -3.82749704E-04   -2.24795883E-01    1.31919877E-01    1.86028936E-06    8.53709492E-01    8.53711353E-01   
                   9.00000000E+01    1.62000000E+02    1.15903797E-05   -3.88133949E-04   -1.93081435E-01    1.31306738E-01    1.89478626E-06    6.85142403E-01    6.85144298E-01   
                   9.00000000E+01    1.64000000E+02   -1.36696612E-05   -3.89579170E-04   -1.63444463E-01    1.26073833E-01    1.90957047E-06    5.35436763E-01    5.35438673E-01   
                   9.00000000E+01    1.66000000E+02   -3.60258391E-05   -3.88159839E-04   -1.36160272E-01    1.17040511E-01    1.90966009E-06    4.05115922E-01    4.05117832E-01   
                   9.00000000E+01    1.68000000E+02   -5.52201938E-05   -3.84880793E-04   -1.11295153E-01    1.04964584E-01    1.89981526E-06    2.94105536E-01    2.94107436E-01   
                   9.00000000E+01    1.70000000E+02   -7.11833744E-05   -3.80632119E-04   -8.87480054E-02    9.05187725E-02    1.88430067E-06    2.01939774E-01    2.01941659E-01   
                   9.00000000E+01    1.72000000E+02   -8.39701364E-05   -3.76165386E-04   -6.82891325E-02    7.42815011E-02    1.86675171E-06    1.27940067E-01    1.27941934E-01   
                   9.00000000E+01    1.74000000E+02   -9.37024777E-05   -3.72085347E-04   -4.95940685E-02    5.67389370E-02    1.85011734E-06    7.13628932E-02    7.13647433E-02   
                   9.00000000E+01    1.76000000E+02   -1.00522782E-04   -3.68851399E-04   -3.22716068E-02    3.82953608E-02    1.83665278E-06    3.15163477E-02    3.15181844E-02   
                   9.00000000E+01    1.78000000E+02   -1.04557808E-04   -3.66783899E-04   -1.58861919E-02    1.92893727E-02    1.82793900E-06    7.84708260E-03    7.84891054E-03   
                   9.00000000E+01    1.80000000E+02   -1.05893469E-04   -3.66071430E-04    2.44413266E-05    1.39258013E-05    1.82490993E-06    9.94384935E-09    1.83485378E-06   
                   9.00000000E+01    1.82000000E+02   -1.04559978E-04   -3.66776252E-04    1.59350286E-02   -1.92613729E-02    1.82787421E-06    7.85304695E-03    7.85487482E-03   
                   9.00000000E+01    1.84000000E+02   -1.00526948E-04   -3.68836301E-04    3.23203008E-02   -3.82669175E-02    1.83652334E-06    3.15285064E-02    3.15303429E-02   
                   9.00000000E+01    1.86000000E+02   -9.37082820E-05   -3.72063173E-04    4.96425095E-02   -5.67097591E-02    1.84992366E-06    7.13817040E-02    7.13835540E-02   
                   9.00000000E+01    1.88000000E+02   -8.39770203E-05   -3.76136658E-04    6.83371875E-02   -7.42513047E-02    1.86649466E-06    1.27966210E-01    1.27968077E-01   
                   9.00000000E+01    1.90000000E+02   -7.11905569E-05   -3.80597448E-04    8.87955109E-02   -9.04872862E-02    1.88398186E-06    2.01974144E-01    2.01976028E-01   
                   9.00000000E+01    1.92000000E+02   -5.52266517E-05   -3.84840808E-04    1.11341908E-01   -1.04931554E-01    1.89943747E-06    2.94149224E-01    2.94151123E-01   
                   9.00000000E+01    1.94000000E+02   -3.60302954E-05   -3.88115096E-04    1.36206033E-01   -1.17005711E-01    1.90922766E-06    4.05170196E-01    4.05172105E-01   
                   9.00000000E+01    1.96000000E+02   -1.36705910E-05   -3.89530043E-04    1.63488940E-01   -1.26037072E-01    1.90908980E-06    5.35503030E-01    5.35504939E-01   
                   9.00000000E+01    1.98000000E+02    1.15947170E-05   -3.88080507E-04    1.93124294E-01   -1.31267872E-01    1.89426623E-06    6.85222163E-01    6.85224057E-01   
                   9.00000000E+01    2.00000000E+02    3.92516230E-05   -3.82691586E-04    2.24836746E-01   -1.31878820E-01    1.85974167E-06    8.53804276E-01    8.53806136E-01   
                   9.00000000E+01    2.02000000E+02    6.84664804E-05   -3.72290373E-04    2.58101221E-01   -1.27029903E-01    1.80060736E-06    1.03990281E+00    1.03990461E+00   
                   9.00000000E+01    2.04000000E+02    9.80372738E-05   -3.55907702E-04    2.92108584E-01   -1.15920529E-01    1.71256509E-06    1.24111752E+00    1.24111923E+00   
                   9.00000000E+01    2.06000000E+02    1.26372860E-04   -3.32809705E-04    3.25744895E-01   -9.78695140E-02    1.59256630E-06    1.45378053E+00    1.45378212E+00   
                   9.00000000E+01    2.08000000E+02    1.51515470E-04   -3.02653690E-04    3.57592796E-01   -7.24128785E-02    1.43955559E-06    1.67278792E+00    1.67278936E+00   
                   9.00000000E+01    2.10000000E+02    1.71221844E-04   -2.65655798E-04    3.85964157E-01   -3.94139990E-02    1.25525379E-06    1.89151264E+00    1.89151390E+00   
                   9.00000000E+01    2.12000000E+02    1.83115484E-04   -2.22749750E-04    4.08972286E-01    8.23523128E-04    1.04487778E-06    2.10183870E+00    2.10183974E+00   
                   9.00000000E+01    2.14000000E+02    1.84915647E-04   -1.75707961E-04    4.24649475E-01    4.74543499E-02    8.17657094E-07    2.29435653E+00    2.29435735E+00   
                   9.00000000E+01    2.16000000E+02    1.74737382E-04   -1.27190089E-04    4.31110799E-01    9.90192835E-02    5.86981094E-07    2.45875290E+00    2.45875349E+00   
                   9.00000000E+01    2.18000000E+02    1.51441337E-04   -8.06822381E-05    4.26758089E-01    1.53422988E-01    3.70005500E-07    2.58441335E+00    2.58441372E+00   
                   9.00000000E+01    2.20000000E+02    1.14993763E-04   -4.02949776E-05    4.10509044E-01    2.07981708E-01    1.86576056E-07    2.66123140E+00    2.66123159E+00   
                   9.00000000E+01    2.22000000E+02    6.67790221E-05   -1.04022221E-05    3.82026736E-01    2.59556944E-01    5.73987076E-08    2.68058572E+00    2.68058578E+00   
                   9.00000000E+01    2.24000000E+02    9.79337927E-06    4.87322542E-06    3.41915910E-01    3.04782182E-01    1.50367436E-09    2.63640782E+00    2.63640782E+00   
                   9.00000000E+01    2.26000000E+02   -5.13549143E-05    2.28931059E-06    2.91846786E-01    3.40376193E-01    3.32074910E-08    2.52622376E+00    2.52622380E+00   
                   9.00000000E+01    2.28000000E+02   -1.10702994E-04   -1.98455492E-05    2.34566964E-01    3.63519213E-01    1.58952006E-07    2.35202093E+00    2.35202109E+00   
                   9.00000000E+01    2.30000000E+02   -1.61482267E-04   -6.10722046E-05    1.73769785E-01    3.72249842E-01    3.74557474E-07    2.12077463E+00    2.12077501E+00   
                   9.00000000E+01    2.32000000E+02   -1.96944573E-04   -1.18382085E-04    1.13804100E-01    3.65824434E-01    6.63523004E-07    1.84447793E+00    1.84447859E+00   
                   9.00000000E+01    2.34000000E+02   -2.11389317E-04   -1.86152721E-04    5.92353356E-02    3.44971475E-01    9.96994217E-07    1.53955813E+00    1.53955913E+00   
                   9.00000000E+01    2.36000000E+02   -2.01249787E-04   -2.56520454E-04    1.42980257E-02    3.11975404E-01    1.33585823E-06    1.22563691E+00    1.22563824E+00   
                   9.00000000E+01    2.38000000E+02   -1.66043256E-04   -3.20230330E-04   -1.76895806E-02    2.70540515E-01    1.63510884E-06    9.23692219E-01    9.23693855E-01   
                   9.00000000E+01    2.40000000E+02   -1.08965089E-04   -3.67911782E-04   -3.48546781E-02    2.25416488E-01    1.85017778E-06    6.53796114E-01    6.53797965E-01   
                   9.00000000E+01    2.42000000E+02   -3.69273875E-05   -3.91623125E-04   -3.71394268E-02    1.81809751E-01    1.94442348E-06    4.32711945E-01    4.32713890E-01   
                   9.00000000E+01    2.44000000E+02    4.00843170E-05   -3.86410893E-04   -2.64184350E-02    1.44652117E-01    1.89651830E-06    2.71712185E-01    2.71714081E-01   
                   9.00000000E+01    2.46000000E+02    1.10341092E-04   -3.51568925E-04   -6.30546140E-03    1.17840112E-01    1.70620985E-06    1.74999917E-01    1.75001624E-01   
                   9.00000000E+01    2.48000000E+02    1.62240390E-04   -2.91281931E-04    1.83559548E-02    1.03583628E-01    1.39696707E-06    1.39065854E-01    1.39067251E-01   
                   9.00000000E+01    2.50000000E+02    1.86418636E-04   -2.14414084E-04    4.22586288E-02    1.02001477E-01    1.01442413E-06    1.53185227E-01    1.53186242E-01   
                   9.00000000E+01    2.52000000E+02    1.77700829E-04   -1.33352413E-04    6.05330931E-02    1.11069106E-01    6.20281716E-07    2.01069490E-01    2.01070110E-01   
                   9.00000000E+01    2.54000000E+02    1.36450558E-04   -6.20142367E-05    6.96184232E-02    1.26962322E-01    2.82297489E-07    2.63468488E-01    2.63468771E-01   
                   9.00000000E+01    2.56000000E+02    6.89541345E-05   -1.33350868E-05    6.79243922E-02    1.44760822E-01    6.19835880E-08    3.21314790E-01    3.21314852E-01   
                   9.00000000E+01    2.58000000E+02   -1.33566458E-05    3.28395430E-06    5.61341418E-02    1.59393403E-01    2.37736056E-09    3.58861601E-01    3.58861604E-01   
                   9.00000000E+01    2.60000000E+02   -9.57957958E-05   -1.59775699E-05    3.70621068E-02    1.66643259E-01    1.18527481E-07    3.66228972E-01    3.66229090E-01   
                   9.00000000E+01    2.62000000E+02   -1.63119551E-04   -6.83095726E-05    1.50739283E-02    1.64004508E-01    3.93003009E-07    3.40859059E-01    3.40859452E-01   
                   9.00000000E+01    2.64000000E+02   -2.02504222E-04   -1.44523969E-04   -4.82667954E-03    1.51200841E-01    7.77797238E-07    2.87581279E-01    2.87582057E-01   
                   9.00000000E+01    2.66000000E+02   -2.06174922E-04   -2.30639999E-04   -1.80587135E-02    1.30242972E-01    1.20263821E-06    2.17264366E-01    2.17265569E-01   
                   9.00000000E+01    2.68000000E+02   -1.73093336E-04   -3.10527411E-04   -2.14457280E-02    1.05000541E-01    1.58824569E-06    1.44325179E-01    1.44326767E-01   
                   9.00000000E+01    2.70000000E+02   -1.09298121E-04   -3.69074702E-04   -1.39028940E-02    8.03733283E-02    1.86186130E-06    8.36061039E-02    8.36079658E-02   
                   9.00000000E+01    2.72000000E+02   -2.67849923E-05   -3.95208272E-04    3.32422338E-03    6.12394268E-02    1.97175169E-06    4.72661142E-02    4.72680859E-02   
                   9.00000000E+01    2.74000000E+02    5.88554731E-05   -3.84105181E-04    2.69225693E-02    5.14105219E-02    1.89753147E-06    4.23218587E-02    4.23237562E-02   
                   9.00000000E+01    2.76000000E+02    1.31538760E-04   -3.38117454E-04    5.22159575E-02    5.28230076E-02    1.65405931E-06    6.93258563E-02    6.93275103E-02   
                   9.00000000E+01    2.78000000E+02    1.77855686E-04   -2.66217699E-04    7.41515562E-02    6.51382804E-02    1.28810964E-06    1.22414657E-01    1.22415945E-01   
                   9.00000000E+01    2.80000000E+02    1.89633194E-04   -1.82110523E-04    8.83488983E-02    8.58303439E-02    8.68650255E-07    1.90661697E-01    1.90662566E-01   
                   9.00000000E+01    2.82000000E+02    1.65363058E-04   -1.01447877E-04    9.19842902E-02    1.10727946E-01    4.72955624E-07    2.60397665E-01    2.60398138E-01   
                   9.00000000E+01    2.84000000E+02    1.10245124E-04   -3.87674878E-05    8.43287464E-02    1.34879337E-01    1.71617736E-07    3.17976591E-01    3.17976763E-01   
                   9.00000000E+01    2.86000000E+02    3.49074543E-05   -4.80258381E-06    6.68422458E-02    1.53543694E-01    1.56023452E-08    3.52405663E-01    3.52405679E-01   
                   9.00000000E+01    2.88000000E+02   -4.68521275E-05   -4.68997866E-06    4.28286543E-02    1.63097501E-01    2.78611233E-08    3.57325860E-01    3.57325888E-01   
                   9.00000000E+01    2.90000000E+02   -1.20775491E-04   -3.73721710E-05    1.67489170E-02    1.61676955E-01    2.00853308E-07    3.32003060E-01    3.32003261E-01   
                   9.00000000E+01    2.92000000E+02   -1.74727884E-04   -9.62117685E-05   -6.64594765E-03    1.49447011E-01    4.99972381E-07    2.81217501E-01    2.81218001E-01   
                   9.00000000E+01    2.94000000E+02   -2.00662119E-04   -1.70582865E-04   -2.31778194E-02    1.28474538E-01    8.71651214E-07    2.14167628E-01    2.14168500E-01   
                   9.00000000E+01    2.96000000E+02   -1.95650733E-04   -2.48030016E-04   -2.99353878E-02    1.02265520E-01    1.25409989E-06    1.42683147E-01    1.42684401E-01   
                   9.00000000E+01    2.98000000E+02   -1.61899302E-04   -3.16520945E-04   -2.56857710E-02    7.50864375E-02    1.58835020E-06    7.91396335E-02    7.91412219E-02   
                   9.00000000E+01    3.00000000E+02   -1.05867332E-04   -3.66363498E-04   -1.09592629E-02    5.12175928E-02    1.82752859E-06    3.44739184E-02    3.44757459E-02   
                   9.00000000E+01    3.02000000E+02   -3.67786040E-05   -3.91484473E-04    1.21691525E-02    3.42798078E-02    1.94292122E-06    1.66277398E-02    1.66296827E-02   
                   9.00000000E+01    3.04000000E+02    3.51242489E-05   -3.89936603E-04    4.05245747E-02    2.67423103E-02    1.92622691E-06    2.96238655E-02    2.96257917E-02   
                   9.00000000E+01    3.06000000E+02    1.00236873E-04   -3.63666661E-04    7.03966077E-02    2.96702560E-02    1.78820548E-06    7.33374201E-02    7.33392083E-02   
                   9.00000000E+01    3.08000000E+02    1.50894763E-04   -3.17707526E-04    9.81126226E-02    4.27181659E-02    1.55455180E-06    1.43896610E-01    1.43898165E-01   
                   9.00000000E+01    3.10000000E+02    1.82165678E-04   -2.59030344E-04    1.20526468E-01    6.43316626E-02    1.26016888E-06    2.34553725E-01    2.34554985E-01   
                   9.00000000E+01    3.12000000E+02    1.92099149E-04   -1.95306422E-04    1.35360502E-01    9.20912849E-02    9.43064411E-07    3.36819826E-01    3.36820769E-01   
                   9.00000000E+01    3.14000000E+02    1.81499796E-04   -1.33792597E-04    1.41374954E-01    1.23121239E-01    6.38907394E-07    4.41654109E-01    4.41654748E-01   
                   9.00000000E+01    3.16000000E+02    1.53357046E-04   -8.04868926E-05    1.38371748E-01    1.54490881E-01    3.76947430E-07    5.40532041E-01    5.40532418E-01   
                   9.00000000E+01    3.18000000E+02    1.12090561E-04   -3.96236938E-05    1.27064439E-01    1.83552984E-01    1.77617242E-07    6.26271085E-01    6.26271263E-01   
                   9.00000000E+01    3.20000000E+02    6.27630392E-05   -1.35068129E-05    1.08859565E-01    2.08184763E-01    5.17939689E-08    6.93554337E-01    6.93554389E-01   
                   9.00000000E+01    3.22000000E+02    1.03802650E-05   -2.62608109E-06    8.55976210E-02    2.26919878E-01    1.44068669E-09    7.39148688E-01    7.39148689E-01   