##File Type: Far field
##File Format: 5
##Source: Thin_wire_XY_rad_theta450.004
##Date: 2020-09-16 11:26:48
** File exported by POSTFEKO version 2018-319328 (x64)

#Configuration Name: StandardConfiguration1
#Request Name: FarField1
#Frequency: 3.00000000E+08
#Coordinate System: Spherical
#No. of Theta Samples: 1
#No. of Phi Samples: 181
#Result Type: RCS
#Incident Wave Direction: (4.50000000E+01, 0.00000000E+00)
#No. of Header Lines: 1
#                 "Theta"           "Phi"             "Re(Etheta)"      "Im(Etheta)"      "Re(Ephi)"        "Im(Ephi)"        "RCS(Theta)"      "RCS(Phi)"        "RCS(Total)"      
                   9.00000000E+01    0.00000000E+00   -3.31881799E-17    1.69859298E-17    0.00000000E+00    0.00000000E+00    1.74669673E-32    0.00000000E+00    1.74669673E-32   
                   9.00000000E+01    2.00000000E+00   -3.31152985E-17    1.70995730E-17    1.88856363E-02   -9.75187701E-03    1.74549199E-32    5.67706357E-03    5.67706357E-03   
                   9.00000000E+01    4.00000000E+00   -3.28933896E-17    1.74379584E-17    3.75639714E-02   -1.99140003E-02    1.74177119E-32    2.27152147E-02    2.27152147E-02   
                   9.00000000E+01    6.00000000E+00   -3.25128271E-17    1.79932807E-17    5.58076962E-02   -3.08851500E-02    1.73521733E-32    5.11249147E-02    5.11249147E-02   
                   9.00000000E+01    8.00000000E+00   -3.19581475E-17    1.87519784E-17    7.33505322E-02   -4.30396536E-02    1.72531227E-32    9.08889439E-02    9.08889439E-02   
                   9.00000000E+01    1.00000000E+01   -3.12089620E-17    1.96939653E-17    8.98705169E-02   -5.67114934E-02    1.71135317E-32    1.41910808E-01    1.41910808E-01   
                   9.00000000E+01    1.20000000E+01   -3.02413097E-17    2.07916797E-17    1.04977024E-01   -7.21744089E-02    1.69247745E-32    2.03943661E-01    2.03943661E-01   
                   9.00000000E+01    1.40000000E+01   -2.90295072E-17    2.20090844E-17    1.18203372E-01   -8.96173665E-02    1.66769823E-32    2.76501742E-01    2.76501742E-01   
                   9.00000000E+01    1.60000000E+01   -2.75485400E-17    2.33007947E-17    1.29007266E-01   -1.09115467E-01    1.63595182E-32    3.58758065E-01    3.58758065E-01   
                   9.00000000E+01    1.80000000E+01   -2.57770054E-17    2.46115556E-17    1.36781589E-01   -1.30597315E-01    1.59615863E-32    4.49434507E-01    4.49434507E-01   
                   9.00000000E+01    2.00000000E+01   -2.37005581E-17    2.58763263E-17    1.40878132E-01   -1.53811083E-01    1.54729811E-32    5.46693638E-01    5.46693638E-01   
                   9.00000000E+01    2.20000000E+01   -2.13157257E-17    2.70212501E-17    1.40646466E-01   -1.78292936E-01    1.48849680E-32    6.48045213E-01    6.48045213E-01   
                   9.00000000E+01    2.40000000E+01   -1.86338503E-17    2.79657772E-17    1.35489264E-01   -2.03342975E-01    1.41912661E-32    7.50284034E-01    7.50284034E-01   
                   9.00000000E+01    2.60000000E+01   -1.56847903E-17    2.86261546E-17    1.24933709E-01   -2.28015269E-01    1.33890830E-32    8.49479047E-01    8.49479047E-01   
                   9.00000000E+01    2.80000000E+01   -1.25198908E-17    2.89203900E-17    1.08716146E-01   -2.51129455E-01    1.24801229E-32    9.41035220E-01    9.41035220E-01   
                   9.00000000E+01    3.00000000E+01   -9.21363471E-18    2.87746231E-17    8.68739376E-02   -2.71311474E-01    1.14714627E-32    1.01984890E+00    1.01984890E+00   
                   9.00000000E+01    3.20000000E+01   -5.86334000E-18    2.81306044E-17    5.98347453E-02   -2.87069751E-01    1.03761736E-32    1.08057264E+00    1.08057264E+00   
                   9.00000000E+01    3.40000000E+01   -2.58631491E-18    2.69537045E-17    2.84897071E-02   -2.96910150E-01    9.21355249E-33    1.11799607E+00    1.11799607E+00   
                   9.00000000E+01    3.60000000E+01    4.85951026E-19    2.52405805E-17   -5.76597411E-03   -2.99488067E-01    8.00883767E-33    1.12753456E+00    1.12753456E+00   
                   9.00000000E+01    3.80000000E+01    3.21667865E-18    2.30253793E-17   -4.10427692E-02   -2.93789163E-01    6.79231323E-33    1.10579765E+00    1.10579765E+00   
                   9.00000000E+01    4.00000000E+01    5.47544932E-18    2.03832066E-17   -7.50330219E-02   -2.79322024E-01    5.59776087E-33    1.05118630E+00    1.05118630E+00   
                   9.00000000E+01    4.20000000E+01    7.15174625E-18    1.74296262E-17   -1.05164383E-01   -2.56297667E-01    4.46029933E-33    9.64444336E-01    9.64444336E-01   
                   9.00000000E+01    4.40000000E+01    8.16894825E-18    1.43152251E-17   -1.28831621E-01   -2.25763905E-01    3.41374738E-33    8.49071052E-01    8.49071052E-01   
                   9.00000000E+01    4.60000000E+01    8.49684730E-18    1.12148274E-17   -1.43694377E-01   -1.89659480E-01    2.48774892E-33    7.11492731E-01    7.11492731E-01   
                   9.00000000E+01    4.80000000E+01    8.16048678E-18    8.31173573E-18   -1.48012288E-01   -1.50755593E-01    1.70498626E-33    5.60898523E-01    5.60898523E-01   
                   9.00000000E+01    5.00000000E+01    7.24319009E-18    5.77834233E-18   -1.40972855E-01   -1.12462797E-01    1.07886115E-33    4.08673788E-01    4.08673788E-01   
                   9.00000000E+01    5.20000000E+01    5.88216611E-18    3.75542090E-18   -1.22955113E-01   -7.84996875E-02    6.12020755E-34    2.67414387E-01    2.67414387E-01   
                   9.00000000E+01    5.40000000E+01    4.25605726E-18    2.33316786E-18   -9.56677512E-02   -5.24450000E-02    2.96034735E-34    1.49574954E-01    1.49574954E-01   
                   9.00000000E+01    5.60000000E+01    2.56515130E-18    1.53738377E-18   -6.21075922E-02   -3.72232251E-02    1.12387965E-34    6.58844945E-02    6.58844945E-02   
                   9.00000000E+01    5.80000000E+01    1.00649905E-18    1.32387022E-18   -2.63053019E-02   -3.45999389E-02    3.47544682E-35    2.37394409E-02    2.37394409E-02   
                   9.00000000E+01    6.00000000E+01   -2.52443511E-19    1.58308352E-18    7.14075255E-03   -4.47799495E-02    3.22940791E-35    2.58394014E-02    2.58394014E-02   
                   9.00000000E+01    6.20000000E+01   -1.09715882E-18    2.15540149E-18    3.36987879E-02   -6.62022819E-02    7.35071492E-35    6.93456367E-02    6.93456367E-02   
                   9.00000000E+01    6.40000000E+01   -1.48185953E-18    2.85528516E-18    4.96185885E-02   -9.56063763E-02    1.30043853E-34    1.45802365E-01    1.45802365E-01   
                   9.00000000E+01    6.60000000E+01   -1.43414926E-18    3.50057427E-18    5.26054039E-02   -1.28403039E-01    1.79834871E-34    2.41961306E-01    2.41961306E-01   
                   9.00000000E+01    6.80000000E+01   -1.04689147E-18    3.94165208E-18    4.23166471E-02   -1.59326448E-01    2.09011452E-34    3.41498859E-01    3.41498859E-01   
                   9.00000000E+01    7.00000000E+01   -4.58193469E-19    4.08471899E-18    2.05590087E-02   -1.83280162E-01    2.12307204E-34    4.27436182E-01    4.27436182E-01   
                   9.00000000E+01    7.20000000E+01    1.76913369E-19    3.90420937E-18   -8.89208813E-03   -1.96234880E-01    1.91940619E-34    4.84901025E-01    4.84901025E-01   
                   9.00000000E+01    7.40000000E+01    7.17404325E-19    3.44145476E-18   -4.08589024E-02   -1.96003926E-01    1.55298725E-34    5.03747961E-01    5.03747961E-01   
                   9.00000000E+01    7.60000000E+01    1.06317774E-18    2.78966701E-18   -6.96392301E-02   -1.82726044E-01    1.11998896E-34    4.80518278E-01    4.80518278E-01   
                   9.00000000E+01    7.80000000E+01    1.17195771E-18    2.06851484E-18   -9.00443706E-02   -1.58929043E-01    7.10281238E-35    4.19294918E-01    4.19294918E-01   
                   9.00000000E+01    8.00000000E+01    1.06235974E-18    1.39417217E-18   -9.83947613E-02   -1.29126917E-01    3.86079652E-35    3.31190338E-01    3.31190338E-01   
                   9.00000000E+01    8.20000000E+01    8.02576647E-19    8.51977493E-19   -9.32616584E-02   -9.90021754E-02    1.72158639E-35    2.32467397E-01    2.32467397E-01   
                   9.00000000E+01    8.40000000E+01    4.87723490E-19    4.78317901E-19   -7.57831408E-02   -7.43216875E-02    5.86425038E-36    1.41582755E-01    1.41582755E-01   
                   9.00000000E+01    8.60000000E+01    2.11805207E-19    2.56067247E-19   -4.94665985E-02   -5.98038918E-02    1.38772794E-36    7.56929030E-02    7.56929030E-02   
                   9.00000000E+01    8.80000000E+01    4.16974378E-20    1.24400985E-19   -1.95004534E-02   -5.81780496E-02    2.16321039E-37    4.73117964E-02    4.73117964E-02   
                   9.00000000E+01    9.00000000E+01   -3.10849568E-35    2.61120449E-34    8.29064951E-03   -6.96432727E-02    8.68966581E-67    6.18129755E-02    6.18129755E-02   
                   9.00000000E+01    9.20000000E+01    6.12154807E-20   -1.96404191E-19    2.86283688E-02   -9.18514653E-02    5.31833198E-37    1.16317784E-01    1.16317784E-01   
                   9.00000000E+01    9.40000000E+01    1.62051076E-19   -5.15624120E-19    3.78466405E-02   -1.20422778E-01    3.67099858E-36    2.00232720E-01    2.00232720E-01   
                   9.00000000E+01    9.60000000E+01    2.22746575E-19   -9.64610313E-19    3.46106664E-02   -1.49882465E-01    1.23161628E-35    2.97353650E-01    2.97353650E-01   
                   9.00000000E+01    9.80000000E+01    1.73288191E-19   -1.50438447E-18    2.01365741E-02   -1.74813697E-01    2.88172192E-35    3.89121566E-01    3.89121566E-01   
                   9.00000000E+01    1.00000000E+02   -2.29692624E-20   -2.06194109E-18   -2.12739152E-03   -1.90975047E-01    5.34338245E-35    4.58370865E-01    4.58370865E-01   
                   9.00000000E+01    1.02000000E+02   -3.55019519E-19   -2.55288929E-18   -2.72770160E-02   -1.96144714E-01    8.34819509E-35    4.92812647E-01    4.92812647E-01   
                   9.00000000E+01    1.04000000E+02   -7.63445197E-19   -2.90867507E-18   -5.00064417E-02   -1.90521194E-01    1.13640696E-34    4.87562232E-01    4.87562232E-01   
                   9.00000000E+01    1.06000000E+02   -1.15371336E-18   -3.10100257E-18   -6.57083599E-02   -1.76613880E-01    1.37567470E-34    4.46232464E-01    4.46232464E-01   
                   9.00000000E+01    1.08000000E+02   -1.42034306E-18   -3.15684079E-18   -7.13898320E-02   -1.58670352E-01    1.50583048E-34    3.80419083E-01    3.80419083E-01   
                   9.00000000E+01    1.10000000E+02   -1.47597981E-18   -3.15987749E-18   -6.62267882E-02   -1.41782791E-01    1.52849065E-34    3.07729647E-01    3.07729647E-01   
                   9.00000000E+01    1.12000000E+02   -1.27825136E-18   -3.23773057E-18   -5.16684995E-02   -1.30873071E-01    1.52264523E-34    2.48781397E-01    2.48781397E-01   
                   9.00000000E+01    1.14000000E+02   -8.47948319E-19   -3.53770489E-18   -3.11032227E-02   -1.29765011E-01    1.66308026E-34    2.23761427E-01    2.23761427E-01   
                   9.00000000E+01    1.16000000E+02   -2.74281586E-19   -4.19650513E-18   -9.18404537E-03   -1.40515789E-01    2.22247394E-34    2.49178987E-01    2.49178987E-01   
                   9.00000000E+01    1.18000000E+02    2.93947998E-19   -5.31049973E-18    9.02849343E-03   -1.63109843E-01    3.55475139E-34    3.35350372E-01    3.35350372E-01   
                   9.00000000E+01    1.20000000E+02    6.69294182E-19   -6.91271413E-18    1.89320142E-02   -1.95536739E-01    6.06120933E-34    4.84974412E-01    4.84974412E-01   
                   9.00000000E+01    1.22000000E+02    6.54305010E-19   -8.96096716E-18    1.71005534E-02   -2.34198875E-01    1.01444600E-33    6.92929055E-01    6.92929055E-01   
                   9.00000000E+01    1.24000000E+02    7.21726440E-20   -1.13390040E-17    1.74744824E-03   -2.74540624E-01    1.61576158E-33    9.47197822E-01    9.47197822E-01   
                   9.00000000E+01    1.26000000E+02   -1.20623416E-18   -1.38697912E-17   -2.71137588E-02   -3.11765479E-01    2.43569071E-33    1.23066074E+00    1.23066074E+00   
                   9.00000000E+01    1.28000000E+02   -3.24338650E-18   -1.63379251E-17   -6.77966155E-02   -3.41512191E-01    3.48650628E-33    1.52338288E+00    1.52338288E+00   
                   9.00000000E+01    1.30000000E+02   -6.02667273E-18   -1.85167734E-17   -1.17296005E-01   -3.60388501E-01    4.76506319E-33    1.80501116E+00    1.80501116E+00   
                   9.00000000E+01    1.32000000E+02   -9.47091307E-18   -2.01956484E-17   -1.71780379E-01   -3.66302185E-01    6.25255365E-33    2.05693629E+00    2.05693629E+00   
                   9.00000000E+01    1.34000000E+02   -1.34302992E-17   -2.12029174E-17   -2.27126416E-01   -3.58572999E-01    7.91601733E-33    2.26396995E+00    2.26396995E+00   
                   9.00000000E+01    1.36000000E+02   -1.77169318E-17   -2.14221863E-17   -2.79411863E-01   -3.37847040E-01    9.71128791E-33    2.41540235E+00    2.41540235E+00   
                   9.00000000E+01    1.38000000E+02   -2.21225306E-17   -2.08002191E-17   -3.25305485E-01   -3.05861273E-01    1.15868908E-32    2.50541733E+00    2.50541733E+00   
                   9.00000000E+01    1.40000000E+02   -2.64399753E-17   -1.93467241E-17   -3.62321177E-01   -2.65118548E-01    1.34883404E-32    2.53293396E+00    2.53293396E+00   
                   9.00000000E+01    1.42000000E+02   -3.04819532E-17   -1.71272973E-17   -3.88930293E-01   -2.18533396E-01    1.53623100E-32    2.50100454E+00    2.50100454E+00   
                   9.00000000E+01    1.44000000E+02   -3.40949044E-17   -1.42515408E-17   -4.04547631E-01   -1.69099376E-01    1.71602452E-32    2.41592728E+00    2.41592728E+00   
                   9.00000000E+01    1.46000000E+02   -3.71674553E-17   -1.08586290E-17   -4.09420336E-01   -1.19613880E-01    1.88411309E-32    2.28623112E+00    2.28623112E+00   
                   9.00000000E+01    1.48000000E+02   -3.96334257E-17   -7.10245782E-18   -4.04454787E-01   -7.24798075E-02    2.03732703E-32    2.12166828E+00    2.12166828E+00   
                   9.00000000E+01    1.50000000E+02   -4.14701652E-17   -3.13810269E-18   -3.91015778E-01   -2.95886852E-02    2.17350748E-32    1.93231610E+00    1.93231610E+00   
                   9.00000000E+01    1.52000000E+02   -4.26933797E-17    8.89243741E-19   -3.70726852E-01    7.72172490E-03    2.29149706E-32    1.72785113E+00    1.72785113E+00   
                   9.00000000E+01    1.54000000E+02   -4.33497467E-17    4.85225464E-18   -3.45292768E-01    3.86495554E-02    2.39105977E-32    1.51702337E+00    1.51702337E+00   
                   9.00000000E+01    1.56000000E+02   -4.35085590E-17    8.64627311E-18   -3.16356659E-01    6.28682296E-02    2.47275102E-32    1.30732917E+00    1.30732917E+00   
                   9.00000000E+01    1.58000000E+02   -4.32534219E-17    1.21912165E-17   -2.85396848E-01    8.04406823E-02    2.53775877E-32    1.10486124E+00    1.10486124E+00   
                   9.00000000E+01    1.60000000E+02   -4.26747557E-17    1.54310982E-17   -2.53662376E-01    9.17237595E-02    2.58773435E-32    9.14302094E-01    9.14302094E-01   
                   9.00000000E+01    1.62000000E+02   -4.18635631E-17    1.83317911E-17   -2.22142355E-01    9.72747405E-02    2.62462784E-32    7.39023241E-01    7.39023241E-01   
                   9.00000000E+01    1.64000000E+02   -4.09066599E-17    2.08776615E-17   -1.91562106E-01    9.77681582E-02    2.65053857E-32    5.81253114E-01    5.81253114E-01   
                   9.00000000E+01    1.66000000E+02   -3.98833623E-17    2.30676316E-17   -1.62398482E-01    9.39275965E-02    2.66758691E-32    4.42281712E-01    4.42281712E-01   
                   9.00000000E+01    1.68000000E+02   -3.88634756E-17    2.49111196E-17   -1.34907252E-01    8.64742706E-02    2.67781016E-32    3.22676327E-01    3.22676327E-01   
                   9.00000000E+01    1.70000000E+02   -3.79063498E-17    2.64241856E-17   -1.09156570E-01    7.60920924E-02    2.68308216E-32    2.22489645E-01    2.22489645E-01   
                   9.00000000E+01    1.72000000E+02   -3.70607254E-17    2.76260943E-17   -8.50619997E-02    6.34075776E-02    2.68505447E-32    1.41447881E-01    1.41447881E-01   
                   9.00000000E+01    1.74000000E+02   -3.63650992E-17    2.85364091E-17   -6.24200535E-02    4.89822446E-02    2.68511557E-32    7.91118799E-02    7.91118799E-02   
                   9.00000000E+01    1.76000000E+02   -3.58483642E-17    2.91726607E-17   -4.09385274E-02    3.33149306E-02    2.68436444E-32    3.50079938E-02    3.50079938E-02   
                   9.00000000E+01    1.78000000E+02   -3.55305189E-17    2.95485843E-17   -2.02630352E-02    1.68515412E-02    2.68359445E-32    8.72816169E-03    8.72816169E-03   
                   9.00000000E+01    1.80000000E+02   -3.54232841E-17    2.96728977E-17   -7.08465681E-17    5.93457953E-17    2.68328444E-32    1.07331378E-31    1.34164222E-31   
                   9.00000000E+01    1.82000000E+02   -3.55305182E-17    2.95485851E-17    2.02630348E-02   -1.68515417E-02    2.68359444E-32    8.72816167E-03    8.72816167E-03   
                   9.00000000E+01    1.84000000E+02   -3.58483630E-17    2.91726621E-17    4.09385260E-02   -3.33149322E-02    2.68436443E-32    3.50079936E-02    3.50079936E-02   
                   9.00000000E+01    1.86000000E+02   -3.63650975E-17    2.85364109E-17    6.24200507E-02   -4.89822478E-02    2.68511555E-32    7.91118794E-02    7.91118794E-02   
                   9.00000000E+01    1.88000000E+02   -3.70607236E-17    2.76260964E-17    8.50619955E-02   -6.34075826E-02    2.68505444E-32    1.41447879E-01    1.41447879E-01   
                   9.00000000E+01    1.90000000E+02   -3.79063480E-17    2.64241878E-17    1.09156565E-01   -7.60920987E-02    2.68308213E-32    2.22489642E-01    2.22489642E-01   
                   9.00000000E+01    1.92000000E+02   -3.88634740E-17    2.49111216E-17    1.34907247E-01   -8.64742774E-02    2.67781012E-32    3.22676323E-01    3.22676323E-01   
                   9.00000000E+01    1.94000000E+02   -3.98833610E-17    2.30676330E-17    1.62398477E-01   -9.39276022E-02    2.66758687E-32    4.42281705E-01    4.42281705E-01   
                   9.00000000E+01    1.96000000E+02   -4.09066592E-17    2.08776621E-17    1.91562102E-01   -9.77681609E-02    2.65053853E-32    5.81253104E-01    5.81253104E-01   
                   9.00000000E+01    1.98000000E+02   -4.18635628E-17    1.83317906E-17    2.22142354E-01   -9.72747379E-02    2.62462779E-32    7.39023228E-01    7.39023228E-01   
                   9.00000000E+01    2.00000000E+02   -4.26747558E-17    1.54310965E-17    2.53662377E-01   -9.17237493E-02    2.58773430E-32    9.14302076E-01    9.14302076E-01   
                   9.00000000E+01    2.02000000E+02   -4.32534222E-17    1.21912136E-17    2.85396850E-01   -8.04406626E-02    2.53775872E-32    1.10486122E+00    1.10486122E+00   
                   9.00000000E+01    2.04000000E+02   -4.35085593E-17    8.64626895E-18    3.16356662E-01   -6.28681994E-02    2.47275097E-32    1.30732915E+00    1.30732915E+00   
                   9.00000000E+01    2.06000000E+02   -4.33497468E-17    4.85224951E-18    3.45292769E-01   -3.86495146E-02    2.39105972E-32    1.51702334E+00    1.51702334E+00   
                   9.00000000E+01    2.08000000E+02   -4.26933794E-17    8.89237978E-19    3.70726849E-01   -7.72167486E-03    2.29149702E-32    1.72785109E+00    1.72785109E+00   
                   9.00000000E+01    2.10000000E+02   -4.14701644E-17   -3.13810869E-18    3.91015770E-01    2.95887418E-02    2.17350744E-32    1.93231606E+00    1.93231606E+00   
                   9.00000000E+01    2.12000000E+02   -3.96334243E-17   -7.10246365E-18    4.04454773E-01    7.24798670E-02    2.03732699E-32    2.12166824E+00    2.12166824E+00   
                   9.00000000E+01    2.14000000E+02   -3.71674535E-17   -1.08586343E-17    4.09420315E-01    1.19613938E-01    1.88411306E-32    2.28623108E+00    2.28623108E+00   
                   9.00000000E+01    2.16000000E+02   -3.40949023E-17   -1.42515452E-17    4.04547605E-01    1.69099429E-01    1.71602449E-32    2.41592725E+00    2.41592725E+00   
                   9.00000000E+01    2.18000000E+02   -3.04819510E-17   -1.71273007E-17    3.88930265E-01    2.18533439E-01    1.53623097E-32    2.50100450E+00    2.50100450E+00   
                   9.00000000E+01    2.20000000E+02   -2.64399732E-17   -1.93467265E-17    3.62321149E-01    2.65118580E-01    1.34883402E-32    2.53293392E+00    2.53293392E+00   
                   9.00000000E+01    2.22000000E+02   -2.21225289E-17   -2.08002205E-17    3.25305460E-01    3.05861293E-01    1.15868906E-32    2.50541729E+00    2.50541729E+00   
                   9.00000000E+01    2.24000000E+02   -1.77169306E-17   -2.14221869E-17    2.79411844E-01    3.37847050E-01    9.71128773E-33    2.41540230E+00    2.41540230E+00   
                   9.00000000E+01    2.26000000E+02   -1.34302984E-17   -2.12029176E-17    2.27126404E-01    3.58573002E-01    7.91601718E-33    2.26396990E+00    2.26396990E+00   
                   9.00000000E+01    2.28000000E+02   -9.47091277E-18   -2.01956483E-17    1.71780374E-01    3.66302183E-01    6.25255353E-33    2.05693625E+00    2.05693625E+00   
                   9.00000000E+01    2.30000000E+02   -6.02667276E-18   -1.85167732E-17    1.17296006E-01    3.60388498E-01    4.76506312E-33    1.80501114E+00    1.80501114E+00   
                   9.00000000E+01    2.32000000E+02   -3.24338671E-18   -1.63379251E-17    6.77966198E-02    3.41512189E-01    3.48650626E-33    1.52338287E+00    1.52338287E+00   
                   9.00000000E+01    2.34000000E+02   -1.20623441E-18   -1.38697912E-17    2.71137644E-02    3.11765481E-01    2.43569074E-33    1.23066075E+00    1.23066075E+00   
                   9.00000000E+01    2.36000000E+02    7.21724601E-20   -1.13390043E-17   -1.74744379E-03    2.74540629E-01    1.61576165E-33    9.47197860E-01    9.47197860E-01   
                   9.00000000E+01    2.38000000E+02    6.54304971E-19   -8.96096754E-18   -1.71005524E-02    2.34198885E-01    1.01444608E-33    6.92929114E-01    6.92929114E-01   
                   9.00000000E+01    2.40000000E+02    6.69294334E-19   -6.91271464E-18   -1.89320185E-02    1.95536754E-01    6.06121024E-34    4.84974485E-01    4.84974485E-01   
                   9.00000000E+01    2.42000000E+02    2.93948357E-19   -5.31050031E-18   -9.02850447E-03    1.63109861E-01    3.55475219E-34    3.35350448E-01    3.35350448E-01   
                   9.00000000E+01    2.44000000E+02   -2.74281029E-19   -4.19650571E-18    9.18402674E-03    1.40515809E-01    2.22247452E-34    2.49179052E-01    2.49179052E-01   
                   9.00000000E+01    2.46000000E+02   -8.47947605E-19   -3.53770540E-18    3.11031965E-02    1.29765030E-01    1.66308057E-34    2.23761468E-01    2.23761468E-01   
                   9.00000000E+01    2.48000000E+02   -1.27825055E-18   -3.23773095E-18    5.16684670E-02    1.30873086E-01    1.52264529E-34    2.48781406E-01    2.48781406E-01   
                   9.00000000E+01    2.50000000E+02   -1.47597901E-18   -3.15987771E-18    6.62267519E-02    1.41782801E-01    1.52849053E-34    3.07729622E-01    3.07729622E-01   
                   9.00000000E+01    2.52000000E+02   -1.42034234E-18   -3.15684084E-18    7.13897956E-02    1.58670355E-01    1.50583026E-34    3.80419027E-01    3.80419027E-01   
                   9.00000000E+01    2.54000000E+02   -1.15371279E-18   -3.10100249E-18    6.57083272E-02    1.76613876E-01    1.37567448E-34    4.46232391E-01    4.46232391E-01   
                   9.00000000E+01    2.56000000E+02   -7.63444805E-19   -2.90867493E-18    5.00064160E-02    1.90521185E-01    1.13640678E-34    4.87562155E-01    4.87562155E-01   
                   9.00000000E+01    2.58000000E+02   -3.55019294E-19   -2.55288915E-18    2.72769987E-02    1.96144703E-01    8.34819398E-35    4.92812582E-01    4.92812582E-01   
                   9.00000000E+01    2.60000000E+02   -2.29691564E-20   -2.06194099E-18    2.12738169E-03    1.90975038E-01    5.34338193E-35    4.58370821E-01    4.58370821E-01   
                   9.00000000E+01    2.62000000E+02    1.73288236E-19   -1.50438443E-18   -2.01365793E-02    1.74813692E-01    2.88172177E-35    3.89121546E-01    3.89121546E-01   
                   9.00000000E+01    2.64000000E+02    2.22746603E-19   -9.64610306E-19   -3.46106708E-02    1.49882464E-01    1.23161628E-35    2.97353650E-01    2.97353650E-01   
                   9.00000000E+01    2.66000000E+02    1.62051104E-19   -5.15624126E-19   -3.78466470E-02    1.20422779E-01    3.67099877E-36    2.00232730E-01    2.00232730E-01   
                   9.00000000E+01    2.68000000E+02    6.12155021E-20   -1.96404193E-19   -2.86283788E-02    9.18514664E-02    5.31833243E-37    1.16317794E-01    1.16317794E-01   
                   9.00000000E+01    2.70000000E+02    9.32550123E-35   -7.83361330E-34   -8.29066214E-03    6.96432712E-02    7.82069923E-66    6.18129756E-02    6.18129756E-02   
                   9.00000000E+01    2.72000000E+02    4.16974101E-20    1.24400975E-19    1.95004404E-02    5.81780450E-02    2.16320980E-37    4.73117834E-02    4.73117834E-02   
                   9.00000000E+01    2.74000000E+02    2.11805159E-19    2.56067222E-19    4.94665873E-02    5.98038861E-02    1.38772753E-36    7.56928806E-02    7.56928806E-02   
                   9.00000000E+01    2.76000000E+02    4.87723434E-19    4.78317880E-19    7.57831320E-02    7.43216843E-02    5.86424943E-36    1.41582732E-01    1.41582732E-01   
                   9.00000000E+01    2.78000000E+02    8.02576576E-19    8.51977519E-19    9.32616502E-02    9.90021784E-02    1.72158631E-35    2.32467385E-01    2.32467385E-01   
                   9.00000000E+01    2.80000000E+02    1.06235961E-18    1.39417229E-18    9.83947498E-02    1.29126928E-01    3.86079661E-35    3.31190346E-01    3.31190346E-01   
                   9.00000000E+01    2.82000000E+02    1.17195745E-18    2.06851509E-18    9.00443512E-02    1.58929062E-01    7.10281292E-35    4.19294950E-01    4.19294950E-01   
                   9.00000000E+01    2.84000000E+02    1.06317728E-18    2.78966736E-18    6.96391998E-02    1.82726067E-01    1.11998908E-34    4.80518329E-01    4.80518329E-01   
                   9.00000000E+01    2.86000000E+02    7.17403597E-19    3.44145513E-18    4.08588610E-02    1.96003947E-01    1.55298744E-34    5.03748022E-01    5.03748022E-01   
                   9.00000000E+01    2.88000000E+02    1.76912388E-19    3.90420964E-18    8.89203882E-03    1.96234894E-01    1.91940642E-34    4.84901082E-01    4.84901082E-01   
                   9.00000000E+01    2.90000000E+02   -4.58194606E-19    4.08471905E-18   -2.05590597E-02    1.83280165E-01    2.12307223E-34    4.27436221E-01    4.27436221E-01   
                   9.00000000E+01    2.92000000E+02   -1.04689260E-18    3.94165187E-18   -4.23166926E-02    1.59326440E-01    2.09011461E-34    3.41498874E-01    3.41498874E-01   
                   9.00000000E+01    2.94000000E+02   -1.43415018E-18    3.50057381E-18   -5.26054375E-02    1.28403022E-01    1.79834864E-34    2.41961297E-01    2.41961297E-01   
                   9.00000000E+01    2.96000000E+02   -1.48186006E-18    2.85528457E-18   -4.96186065E-02    9.56063565E-02    1.30043830E-34    1.45802339E-01    1.45802339E-01   
                   9.00000000E+01    2.98000000E+02   -1.09715889E-18    2.15540093E-18   -3.36987898E-02    6.62022646E-02    7.35071205E-35    6.93456096E-02    6.93456096E-02   
                   9.00000000E+01    3.00000000E+02   -2.52443105E-19    1.58308317E-18   -7.14074105E-03    4.47799395E-02    3.22940625E-35    2.58393880E-02    2.58393880E-02   
                   9.00000000E+01    3.02000000E+02    1.00649983E-18    1.32387021E-18    2.63053222E-02    3.45999388E-02    3.47544876E-35    2.37394542E-02    2.37394542E-02   
                   9.00000000E+01    3.04000000E+02    2.56515227E-18    1.53738417E-18    6.21076157E-02    3.72232348E-02    1.12388043E-34    6.58845405E-02    6.58845405E-02   
                   9.00000000E+01    3.06000000E+02    4.25605824E-18    2.33316866E-18    9.56677732E-02    5.24450177E-02    2.96034886E-34    1.49575030E-01    1.49575030E-01   
                   9.00000000E+01    3.08000000E+02    5.88216691E-18    3.75542197E-18    1.22955130E-01    7.84997100E-02    6.12020975E-34    2.67414483E-01    2.67414483E-01   
                   9.00000000E+01    3.10000000E+02    7.24319056E-18    5.77834354E-18    1.40972865E-01    1.12462821E-01    1.07886142E-33    4.08673887E-01    4.08673887E-01   
                   9.00000000E+01    3.12000000E+02    8.16048682E-18    8.31173690E-18    1.48012289E-01    1.50755614E-01    1.70498651E-33    5.60898606E-01    5.60898606E-01   
                   9.00000000E+01    3.14000000E+02    8.49684686E-18    1.12148284E-17    1.43694370E-01    1.89659497E-01    2.48774910E-33    7.11492782E-01    7.11492782E-01   
                   9.00000000E+01    3.16000000E+02    8.16894729E-18    1.43152257E-17    1.28831606E-01    2.25763915E-01    3.41374742E-33    8.49071061E-01    8.49071061E-01   
                   9.00000000E+01    3.18000000E+02    7.15174478E-18    1.74296264E-17    1.05164361E-01    2.56297670E-01    4.46029916E-33    9.64444299E-01    9.64444299E-01   
                   9.00000000E+01    3.20000000E+02    5.47544737E-18    2.03832063E-17    7.50329952E-02    2.79322020E-01    5.59776045E-33    1.05118622E+00    1.05118622E+00   
                   9.00000000E+01    3.22000000E+02    3.21667625E-18    2.30253785E-17    4.10427385E-02    2.93789152E-01    6.79231255E-33    1.10579754E+00    1.10579754E+00   