##File Type: Far field
##File Format: 5
##Source: RWG_wire_XY_rad_theta450.1
##Date: 2020-09-16 10:50:29
** File exported by POSTFEKO version 2018-319328 (x64)

#Configuration Name: StandardConfiguration1
#Request Name: FarField1
#Frequency: 3.00000000E+08
#Coordinate System: Spherical
#No. of Theta Samples: 1
#No. of Phi Samples: 181
#Result Type: RCS
#Incident Wave Direction: (4.50000000E+01, 0.00000000E+00)
#No. of Header Lines: 1
#                 "Theta"           "Phi"             "Re(Etheta)"      "Im(Etheta)"      "Re(Ephi)"        "Im(Ephi)"        "RCS(Theta)"      "RCS(Phi)"        "RCS(Total)"      
                   9.00000000E+01    0.00000000E+00   -1.80356398E-02   -6.04830666E-02   -1.13009952E-04   -2.18053264E-04    5.00579570E-02    7.57984311E-07    5.00587150E-02   
                   9.00000000E+01    2.00000000E+00   -1.82627438E-02   -6.03696753E-02    1.14243406E-02   -9.22738768E-03    4.99893428E-02    2.71006651E-03    5.26994093E-02   
                   9.00000000E+01    4.00000000E+00   -1.89286191E-02   -6.00224201E-02    2.27631743E-02   -1.84449254E-02    4.97751872E-02    1.07866883E-02    6.05618754E-02   
                   9.00000000E+01    6.00000000E+00   -2.00157601E-02   -5.94125947E-02    3.36959190E-02   -2.80703638E-02    4.93919571E-02    2.41696581E-02    7.35616152E-02   
                   9.00000000E+01    8.00000000E+00   -2.14927519E-02   -5.84940827E-02    4.39960493E-02   -3.82808674E-02    4.88014512E-02    4.27391961E-02    9.15406473E-02   
                   9.00000000E+01    1.00000000E+01   -2.33110464E-02   -5.72061092E-02    5.34110579E-02   -4.92180827E-02    4.79525642E-02    6.62896253E-02    1.14242190E-01   
                   9.00000000E+01    1.20000000E+01   -2.54009120E-02   -5.54775227E-02    6.16585968E-02   -6.09734219E-02    4.67841185E-02    9.44933356E-02    1.41277454E-01   
                   9.00000000E+01    1.40000000E+01   -2.76670756E-02   -5.32329562E-02    6.84270875E-02   -7.35716276E-02    4.52290657E-02    1.26858148E-01    1.72087214E-01   
                   9.00000000E+01    1.60000000E+01   -2.99847930E-02   -5.04011834E-02    7.33821924E-02   -8.69531613E-02    4.32203616E-02    1.62681701E-01    2.05902063E-01   
                   9.00000000E+01    1.80000000E+01   -3.21973170E-02   -4.69258484E-02    7.61805055E-02   -1.00956634E-01    4.06987356E-02    2.01008038E-01    2.41706774E-01   
                   9.00000000E+01    2.00000000E+01   -3.41159506E-02   -4.27784708E-02    7.64915816E-02   -1.15303291E-01    3.76224023E-02    2.40593357E-01    2.78215760E-01   
                   9.00000000E+01    2.20000000E+01   -3.55240250E-02   -3.79732052E-02    7.40288603E-02   -1.29586388E-01    3.39784692E-02    2.79889569E-01    3.13868038E-01   
                   9.00000000E+01    2.40000000E+01   -3.61861507E-02   -3.25822564E-02    6.85890830E-02   -1.43269060E-01    2.97953792E-02    3.17055636E-01    3.46851015E-01   
                   9.00000000E+01    2.60000000E+01   -3.58638687E-02   -2.67501626E-02    6.00983955E-02   -1.55694759E-01    2.51552134E-02    3.50007039E-01    3.75162252E-01   
                   9.00000000E+01    2.80000000E+01   -3.43382897E-02   -2.07044405E-02    4.86615036E-02   -1.66114350E-01    2.02041101E-02    3.76512581E-01    3.96716691E-01   
                   9.00000000E+01    3.00000000E+01   -3.14393829E-02   -1.47594735E-02    3.46081387E-02   -1.73733158E-01    1.51585221E-02    3.94344440E-01    4.09502962E-01   
                   9.00000000E+01    3.20000000E+01   -2.70802506E-02   -9.31021044E-03    1.85289941E-02   -1.77779522E-01    1.03046751E-02    4.01481494E-01    4.11786169E-01   
                   9.00000000E+01    3.40000000E+01   -2.12930727E-02   -4.81245776E-03    1.29163636E-03   -1.77593468E-01    5.98856291E-03    3.96357254E-01    4.02345817E-01   
                   9.00000000E+01    3.60000000E+01   -1.42616277E-02   -1.74751639E-03   -1.59737224E-02   -1.72730081E-01    2.59430006E-03    3.78132657E-01    3.80726957E-01   
                   9.00000000E+01    3.80000000E+01   -6.34371608E-03   -5.70799575E-04   -3.19276484E-02   -1.63067364E-01    5.09799382E-04    3.46961763E-01    3.47471562E-01   
                   9.00000000E+01    4.00000000E+01    1.92409969E-03   -1.64689256E-03   -4.51198487E-02   -1.48903384E-01    8.06059128E-05    3.04206932E-01    3.04287538E-01   
                   9.00000000E+01    4.20000000E+01    9.84675301E-03   -5.17707204E-03   -5.41323257E-02   -1.31023573E-01    1.55522182E-03    2.52552450E-01    2.54107672E-01   
                   9.00000000E+01    4.40000000E+01    1.66213046E-02   -1.11291036E-02   -5.77588668E-02   -1.10717249E-01    5.02811544E-03    1.95964959E-01    2.00993074E-01   
                   9.00000000E+01    4.60000000E+01    2.14194259E-02   -1.91823928E-02   -5.52025251E-02   -8.97243581E-02    1.03893223E-02    1.39458806E-01    1.49848129E-01   
                   9.00000000E+01    4.80000000E+01    2.34974540E-02   -2.87032722E-02   -4.62628877E-02   -7.01000766E-02    1.72914288E-02    8.86466406E-02    1.05938069E-01   
                   9.00000000E+01    5.00000000E+01    2.23227198E-02   -3.87643165E-02   -3.14774203E-02   -5.39966743E-02    2.51450067E-02    4.90901350E-02    7.42351417E-02   
                   9.00000000E+01    5.20000000E+01    1.76977845E-02   -4.82172728E-02   -1.21787057E-02   -4.33781761E-02    3.31515556E-02    2.55095694E-02    5.86611250E-02   
                   9.00000000E+01    5.40000000E+01    9.85879870E-03   -5.58212358E-02    9.56553567E-03   -3.97016322E-02    4.03783410E-02    2.09571760E-02    6.13355170E-02   
                   9.00000000E+01    5.60000000E+01   -4.77641765E-04   -6.04167108E-02    3.11486590E-02   -4.36155904E-02    4.58723683E-02    3.60976371E-02    8.19700054E-02   
                   9.00000000E+01    5.80000000E+01   -1.21413340E-02   -6.11238681E-02    4.97537348E-02   -5.47370652E-02    4.88019934E-02    6.87579076E-02    1.17559901E-01   
                   9.00000000E+01    6.00000000E+01   -2.36216096E-02   -5.75322339E-02    6.27819894E-02   -7.15682604E-02    4.86059472E-02    1.13896482E-01    1.62502430E-01   
                   9.00000000E+01    6.20000000E+01   -3.32641371E-02   -4.98424430E-02    6.83188624E-02   -9.16001723E-02    4.51229710E-02    1.64092403E-01    2.09215374E-01   
                   9.00000000E+01    6.40000000E+01   -3.95300005E-02   -3.89214885E-02    6.55523538E-02   -1.11621278E-01    3.86730458E-02    2.10567393E-01    2.49240439E-01   
                   9.00000000E+01    6.60000000E+01   -4.12772029E-02   -2.62429941E-02    5.50492462E-02   -1.28208883E-01    3.00650695E-02    2.44641315E-01    2.74706385E-01   
                   9.00000000E+01    6.80000000E+01   -3.80113291E-02   -1.37032574E-02    3.88058213E-02   -1.38335505E-01    2.05163644E-02    2.59402610E-01    2.79918974E-01   
                   9.00000000E+01    7.00000000E+01   -3.00483824E-02   -3.32949961E-03    2.00231202E-02   -1.39983216E-01    1.14855478E-02    2.51279990E-01    2.62765537E-01   
                   9.00000000E+01    7.20000000E+01   -1.85419423E-02    3.07620374E-03    2.60941389E-03   -1.32636670E-01    4.43927969E-03    2.21159267E-01    2.25598547E-01   
                   9.00000000E+01    7.40000000E+01   -5.34913102E-03    4.29208900E-03   -9.52489160E-03   -1.17530018E-01    5.91062141E-04    1.74723176E-01    1.75314238E-01   
                   9.00000000E+01    7.60000000E+01    7.25775839E-03   -4.41051488E-05   -1.32561997E-02   -9.75585677E-02    6.61958730E-04    1.21810869E-01    1.22472828E-01   
                   9.00000000E+01    7.80000000E+01    1.69912754E-02   -9.30031455E-03   -6.95823985E-03   -7.68295831E-02    4.71489336E-03    7.47850092E-02    7.94999025E-02   
                   9.00000000E+01    8.00000000E+01    2.19870983E-02   -2.19039451E-02    9.03327498E-03   -5.99066502E-02    1.21041204E-02    4.61236921E-02    5.82278125E-02   
                   9.00000000E+01    8.20000000E+01    2.11903482E-02   -3.55906276E-02    3.23342605E-02   -5.08806430E-02    2.15604190E-02    4.56705166E-02    6.72309357E-02   
                   9.00000000E+01    8.40000000E+01    1.46026956E-02   -4.78105612E-02    5.88644185E-02   -5.24569664E-02    3.14044720E-02    7.81220233E-02    1.09526495E-01   
                   9.00000000E+01    8.60000000E+01    3.32735340E-03   -5.62161011E-02    8.36025370E-02   -6.52660260E-02    3.98519988E-02    1.41359585E-01    1.81211584E-01   
                   9.00000000E+01    8.80000000E+01   -1.06094544E-02   -5.91304200E-02    1.01612002E-01   -8.75725998E-02    4.53516180E-02    2.26118759E-01    2.71470377E-01   
                   9.00000000E+01    9.00000000E+01   -2.46325059E-02   -5.58956534E-02    1.09128874E-01   -1.15482848E-01    4.68861896E-02    3.17243044E-01    3.64129233E-01   
                   9.00000000E+01    9.20000000E+01   -3.61136195E-02   -4.70217347E-02    1.04474012E-01   -1.43640457E-01    4.41737715E-02    3.96436321E-01    4.40610092E-01   
                   9.00000000E+01    9.40000000E+01   -4.28865389E-02   -3.40995719E-02    8.85748094E-02   -1.66290523E-01    3.77246972E-02    4.46081465E-01    4.83806162E-01   
                   9.00000000E+01    9.60000000E+01   -4.36714315E-02   -1.94943409E-02    6.49586082E-02   -1.78499131E-01    2.87420952E-02    4.53414264E-01    4.82156359E-01   
                   9.00000000E+01    9.80000000E+01   -3.83193326E-02   -5.88367716E-03    3.91923667E-02   -1.77271622E-01    1.88871156E-02    4.14203528E-01    4.33090644E-01   
                   9.00000000E+01    1.00000000E+02   -2.78273150E-02    4.26068693E-03    1.78653514E-02   -1.62325971E-01    9.95901095E-03    3.35131176E-01    3.45090187E-01   
                   9.00000000E+01    1.02000000E+02   -1.41263689E-02    9.13888263E-03    7.31411055E-03   -1.36347378E-01    3.55720619E-03    2.34288715E-01    2.37845922E-01   
                   9.00000000E+01    1.04000000E+02    3.06786332E-04    7.94240772E-03    1.23470897E-02   -1.04659849E-01    7.93892504E-04    1.39563803E-01    1.40357695E-01   
                   9.00000000E+01    1.06000000E+02    1.29272321E-02    9.68744768E-04    3.52265579E-02   -7.43740765E-02    2.11180115E-03    8.51046598E-02    8.72164610E-02   
                   9.00000000E+01    1.08000000E+02    2.15879573E-02   -1.04805546E-02    7.51091627E-02   -5.31791478E-02    7.23674574E-03    1.06429721E-01    1.13666467E-01   
                   9.00000000E+01    1.10000000E+02    2.49030875E-02   -2.43838138E-02    1.28048297E-01   -4.80143382E-02    1.52647994E-02    2.35013033E-01    2.50277833E-01   
                   9.00000000E+01    1.12000000E+02    2.24453917E-02   -3.83958604E-02    1.87545722E-01   -6.38727995E-02    2.48567549E-02    4.93269408E-01    5.18126163E-01   
                   9.00000000E+01    1.14000000E+02    1.47547585E-02   -5.02714393E-02    2.45533332E-01   -1.02951166E-01    3.44936884E-02    8.90774214E-01    9.25267902E-01   
                   9.00000000E+01    1.16000000E+02    3.17464400E-03   -5.82330390E-02    2.93591120E-01   -1.64280254E-01    4.27403024E-02    1.42230892E+00    1.46504922E+00   
                   9.00000000E+01    1.18000000E+02   -1.04345311E-02   -6.12211970E-02    3.24177567E-01   -2.43872641E-01    4.84674158E-02    2.06798427E+00    2.11645169E+00   
                   9.00000000E+01    1.20000000E+02   -2.40383841E-02   -5.89959505E-02    3.31665530E-01   -3.35325949E-01    5.09989323E-02    2.79533280E+00    2.84633173E+00   
                   9.00000000E+01    1.22000000E+02   -3.57597373E-02   -5.20907443E-02    3.13031392E-01   -4.30745957E-01    5.01675208E-02    3.56295226E+00    3.61311978E+00   
                   9.00000000E+01    1.24000000E+02   -4.41420369E-02   -4.16474822E-02    2.68121909E-01   -5.21813355E-01    4.62823476E-02    4.32507504E+00    4.37135738E+00   
                   9.00000000E+01    1.26000000E+02   -4.83104134E-02   -2.91786313E-02    1.99503535E-01   -6.00815419E-01    4.00275166E-02    5.03636042E+00    5.07638794E+00   
                   9.00000000E+01    1.28000000E+02   -4.80200252E-02   -1.63076111E-02    1.11966827E-01   -6.61493654E-01    3.23189585E-02    5.65625442E+00    5.68857337E+00   
                   9.00000000E+01    1.30000000E+02   -4.36030198E-02   -4.53330586E-03    1.18030013E-02   -6.99609728E-01    2.41497268E-02    6.15240812E+00    6.17655785E+00   
                   9.00000000E+01    1.32000000E+02   -3.58407539E-02    4.94832589E-03   -9.40133750E-02   -7.13191286E-01    1.64499517E-02    6.50284955E+00    6.51929950E+00   
                   9.00000000E+01    1.34000000E+02   -2.57951831E-02    1.13487828E-02   -1.98610078E-01   -7.02474299E-01    9.98003994E-03    6.69682127E+00    6.70680131E+00   
                   9.00000000E+01    1.36000000E+02   -1.46329504E-02    1.43166203E-02   -2.95873228E-01   -6.69600347E-01    5.26642586E-03    6.73438829E+00    6.73965471E+00   
                   9.00000000E+01    1.38000000E+02   -3.46952901E-03    1.39033504E-02   -3.80912967E-01   -6.18151264E-01    2.58038841E-03    6.62506188E+00    6.62764227E+00   
                   9.00000000E+01    1.40000000E+02    6.74862917E-03    1.04843393E-02   -4.50317107E-01   -5.52609611E-01    1.95363540E-03    6.38576307E+00    6.38771671E+00   
                   9.00000000E+01    1.42000000E+02    1.53160977E-02    4.65587705E-03   -5.02204556E-01   -4.77824728E-01    3.22025864E-03    6.03846639E+00    6.04168665E+00   
                   9.00000000E+01    1.44000000E+02    2.17956072E-02   -2.87203418E-03   -5.36114256E-01   -3.98545557E-01    6.07329017E-03    5.60783157E+00    5.61390486E+00   
                   9.00000000E+01    1.46000000E+02    2.60076108E-02   -1.13719826E-02   -5.52778305E-01   -3.19058570E-01    1.01249486E-02    5.11906471E+00    5.12918966E+00   
                   9.00000000E+01    1.48000000E+02    2.79930467E-02   -2.01748976E-02   -5.53830721E-01   -2.42946610E-01    1.49619878E-02    4.59616919E+00    4.61113118E+00   
                   9.00000000E+01    1.50000000E+02    2.79608918E-02   -2.87210872E-02   -5.41498251E-01   -1.72965638E-01    2.01905425E-02    4.06066518E+00    4.08085572E+00   
                   9.00000000E+01    1.52000000E+02    2.62309463E-02   -3.65869216E-02   -5.18309706E-01   -1.11023070E-01    2.54678282E-02    3.53078665E+00    3.55625447E+00   
                   9.00000000E+01    1.54000000E+02    2.31799448E-02   -4.34906484E-02   -4.86848354E-01   -5.82339101E-02    3.05205266E-02    3.02111268E+00    3.05163321E+00   
                   9.00000000E+01    1.56000000E+02    1.91962924E-02   -4.92825039E-02   -4.49560215E-01   -1.50286175E-02    3.51514414E-02    2.54255686E+00    2.57770830E+00   
                   9.00000000E+01    1.58000000E+02    1.46460550E-02   -5.39247087E-02   -4.08621287E-01    1.87117189E-02    3.92369985E-02    2.10262379E+00    2.14186079E+00   
                   9.00000000E+01    1.60000000E+02    9.85065084E-03   -5.74664629E-02   -3.65859490E-01    4.35132166E-02    4.27184932E-02    1.70584167E+00    1.74856016E+00   
                   9.00000000E+01    1.62000000E+02    5.07515312E-03   -6.00180429E-02   -3.22722625E-01    6.01751004E-02    4.55898206E-02    1.35428951E+00    1.39987933E+00   
                   9.00000000E+01    1.64000000E+02    5.25228182E-04   -6.17268863E-02   -2.80281595E-01    6.96534136E-02    4.78839586E-02    1.04815306E+00    1.09603702E+00   
                   9.00000000E+01    1.66000000E+02   -3.64960857E-03   -6.27573680E-02   -2.39258001E-01    7.29675846E-02    4.96598699E-02    7.86260966E-01    8.35920836E-01   
                   9.00000000E+01    1.68000000E+02   -7.34867405E-03   -6.32749769E-02   -2.00066324E-01    7.11312069E-02    5.09908851E-02    5.66569682E-01    6.17560567E-01   
                   9.00000000E+01    1.70000000E+02   -1.05106854E-02   -6.34348562E-02   -1.62862767E-01    6.51058084E-02    5.19551000E-02    3.86579850E-01    4.38534950E-01   
                   9.00000000E+01    1.72000000E+02   -1.31037429E-02   -6.33741934E-02   -1.27594925E-01    5.57748213E-02    5.26279158E-02    2.43678206E-01    2.96306122E-01   
                   9.00000000E+01    1.74000000E+02   -1.51158226E-02   -6.32076844E-02   -9.40484932E-02    4.39342408E-02    5.30765727E-02    1.35406873E-01    1.88483446E-01   
                   9.00000000E+01    1.76000000E+02   -1.65464899E-02   -6.30252248E-02   -6.18889906E-02    3.02963281E-02    5.33563735E-02    5.96665685E-02    1.13022942E-01   
                   9.00000000E+01    1.78000000E+02   -1.74002459E-02   -6.28910282E-02   -3.06979452E-02    1.55029650E-02    5.35082343E-02    1.48623189E-02    6.83705532E-02   
                   9.00000000E+01    1.80000000E+02   -1.76817109E-02   -6.28434971E-02   -4.06099676E-06    1.45686361E-04    5.35572184E-02    2.66922371E-07    5.35574853E-02   
                   9.00000000E+01    1.82000000E+02   -1.73927234E-02   -6.28953486E-02    3.06893521E-02   -1.52101374E-02    5.35117743E-02    1.47426726E-02    6.82544470E-02   
                   9.00000000E+01    1.84000000E+02   -1.65313778E-02   -6.30336890E-02    6.18789287E-02   -2.99991407E-02    5.33635000E-02    5.94257415E-02    1.12789242E-01   
                   9.00000000E+01    1.86000000E+02   -1.50930012E-02   -6.32199350E-02    9.40357984E-02   -4.36298076E-02    5.30873724E-02    1.35041882E-01    1.88129254E-01   
                   9.00000000E+01    1.88000000E+02   -1.30730675E-02   -6.33896854E-02    1.27578156E-01   -5.54602998E-02    5.26425033E-02    2.43184790E-01    2.95827293E-01   
                   9.00000000E+01    1.90000000E+02   -1.04720294E-02   -6.34528501E-02    1.62840097E-01   -6.47784426E-02    5.19735988E-02    3.85952747E-01    4.37926346E-01   
                   9.00000000E+01    1.92000000E+02   -7.30198601E-03   -6.32945374E-02    2.00035437E-01   -7.07883952E-02    5.10134010E-02    5.65803011E-01    6.16816412E-01   
                   9.00000000E+01    1.94000000E+02   -3.59498245E-03   -6.27773740E-02    2.39215998E-01   -7.26069796E-02    4.96864566E-02    7.85348741E-01    8.35035197E-01   
                   9.00000000E+01    1.96000000E+02    5.87472178E-04   -6.17460584E-02    2.80224918E-01   -6.92730589E-02    4.79145766E-02    1.04708983E+00    1.09500441E+00   
                   9.00000000E+01    1.98000000E+02    5.14438317E-03   -6.00349974E-02    3.22647015E-01   -5.97736068E-02    4.56242894E-02    1.35307115E+00    1.39869543E+00   
                   9.00000000E+01    2.00000000E+02    9.92584225E-03   -5.74797972E-02    3.65759988E-01   -4.30899780E-02    4.27564406E-02    1.70446625E+00    1.74722269E+00   
                   9.00000000E+01    2.02000000E+02    1.47257258E-02   -5.39331244E-02    4.08492291E-01   -1.82671613E-02    3.92778113E-02    2.10109265E+00    2.14037047E+00   
                   9.00000000E+01    2.04000000E+02    1.92784717E-02   -4.92849662E-02    4.49395630E-01    1.54927655E-02    3.51942240E-02    2.54087563E+00    2.57606985E+00   
                   9.00000000E+01    2.06000000E+02    2.32621930E-02   -4.34865763E-02    4.86641832E-01    5.87143472E-02    3.05640767E-02    3.01929230E+00    3.04985637E+00   
                   9.00000000E+01    2.08000000E+02    2.63104459E-02   -3.65763944E-02    5.18054998E-01    1.11514684E-01    2.55106395E-02    3.52884428E+00    3.55435492E+00   
                   9.00000000E+01    2.10000000E+02    2.80346233E-02   -2.87050422E-02    5.41189683E-01    1.73461335E-01    2.02308458E-02    4.05862490E+00    4.07885575E+00   
                   9.00000000E+01    2.12000000E+02    2.80580585E-02   -2.01552853E-02    5.53463778E-01    2.43437267E-01    1.49978398E-02    4.59406223E+00    4.60906007E+00   
                   9.00000000E+01    2.14000000E+02    2.60613754E-02   -1.13518374E-02    5.52350295E-01    3.19533158E-01    1.01543752E-02    5.11692919E+00    5.12708357E+00   
                   9.00000000E+01    2.16000000E+02    2.18364407E-02   -2.85541658E-03    5.35625015E-01    3.98991485E-01    6.09448296E-03    5.60571168E+00    5.61180617E+00   
                   9.00000000E+01    2.18000000E+02    1.53435949E-02    4.66410567E-03    5.01657117E-01    4.78228443E-01    3.23181649E-03    6.03641078E+00    6.03964260E+00   
                   9.00000000E+01    2.20000000E+02    6.76404742E-03    1.04789311E-02    4.49718230E-01    5.52957480E-01    1.95482881E-03    6.38382260E+00    6.38577743E+00   
                   9.00000000E+01    2.22000000E+02   -3.46302198E-03    1.38792696E-02    3.80273429E-01    6.18430702E-01    2.57141426E-03    6.62328677E+00    6.62585818E+00   
                   9.00000000E+01    2.24000000E+02   -1.46302535E-02    1.42697817E-02    2.95207751E-01    6.69801139E-01    5.24860843E-03    6.73282490E+00    6.73807351E+00   
                   9.00000000E+01    2.26000000E+02   -2.57895396E-02    1.12768447E-02    1.97936794E-01    7.02589983E-01    9.95592803E-03    6.69550876E+00    6.70546469E+00   
                   9.00000000E+01    2.28000000E+02   -3.58243720E-02    4.85140697E-03    9.33527712E-02    7.13220443E-01    1.64232635E-02    6.50181678E+00    6.51824005E+00   
                   9.00000000E+01    2.30000000E+02   -4.35680218E-02   -4.65213773E-03   -1.24296557E-02    6.99556964E-01    2.41251056E-02    6.15167122E+00    6.17579633E+00   
                   9.00000000E+01    2.32000000E+02   -4.79596371E-02   -1.64422363E-02   -1.12539487E-01    6.61370053E-01    3.23015280E-02    5.65581532E+00    5.68811685E+00   
                   9.00000000E+01    2.34000000E+02   -4.82202323E-02   -2.93202836E-02   -2.00005626E-01    6.00638277E-01    4.00222547E-02    5.03620663E+00    5.07622889E+00   
                   9.00000000E+01    2.36000000E+02   -4.40211482E-02   -4.17857121E-02   -2.68542549E-01    5.21605065E-01    4.62933435E-02    4.32518071E+00    4.37147405E+00   
                   9.00000000E+01    2.38000000E+02   -3.56114242E-02   -5.22148825E-02   -3.13367234E-01    4.30532028E-01    5.01972155E-02    3.56328047E+00    3.61347768E+00   
                   9.00000000E+01    2.40000000E+02   -2.38701948E-02   -5.90968925E-02   -3.31921871E-01    3.35132292E-01    5.10474739E-02    2.79583879E+00    2.84688626E+00   
                   9.00000000E+01    2.42000000E+02   -1.02575528E-02   -6.12932136E-02   -3.24368416E-01    2.43722409E-01    4.85322710E-02    2.06861916E+00    2.11715143E+00   
                   9.00000000E+01    2.44000000E+02    3.34731524E-03   -5.82752442E-02   -2.93738025E-01    1.64190668E-01    4.28162461E-02    1.42302339E+00    1.46583963E+00   
                   9.00000000E+01    2.46000000E+02    1.49101835E-02   -5.02885453E-02   -2.45662965E-01    1.02930830E-01    3.45732442E-02    8.91521765E-01    9.26095009E-01   
                   9.00000000E+01    2.48000000E+02    2.25732452E-02   -3.83979346E-02   -1.87686434E-01    6.39200357E-02    2.49310860E-02    4.94008764E-01    5.18939850E-01   
                   9.00000000E+01    2.50000000E+02    2.49979316E-02   -2.43849261E-02   -1.28226101E-01    4.81169456E-02    1.53249554E-02    2.35709593E-01    2.51034548E-01   
                   9.00000000E+01    2.52000000E+02    2.16508144E-02   -1.04964364E-02   -7.53437459E-02    5.33157971E-02    7.27508589E-03    1.07056107E-01    1.14331192E-01   
                   9.00000000E+01    2.54000000E+02    1.29660204E-02    9.23660255E-04   -3.55280238E-02    7.45172735E-02    2.12335010E-03    8.56406266E-02    8.77639767E-02   
                   9.00000000E+01    2.56000000E+02    3.35378657E-04    7.85800097E-03   -1.27140680E-02    1.04780092E-01    7.77363956E-04    1.39995842E-01    1.40773206E-01   
                   9.00000000E+01    2.58000000E+02   -1.40904177E-02    9.01176658E-03   -7.73367787E-03    1.36417871E-01    3.51546490E-03    2.34609682E-01    2.38125147E-01   
                   9.00000000E+01    2.60000000E+02   -2.77660118E-02    4.09543770E-03   -1.83149008E-02    1.62327092E-01    9.89883199E-03    3.35340140E-01    3.45238972E-01   
                   9.00000000E+01    2.62000000E+02   -3.82178394E-02   -6.07485633E-03   -3.96432037E-02    1.77194324E-01    1.88182295E-02    4.14305849E-01    4.33124079E-01   
                   9.00000000E+01    2.64000000E+02   -4.35212476E-02   -1.96935745E-02   -6.53807020E-02    1.78346617E-01    2.86756519E-02    4.53421694E-01    4.82097346E-01   
                   9.00000000E+01    2.66000000E+02   -4.26875482E-02   -3.42865678E-02   -8.89418796E-02    1.66077828E-01    3.76714093E-02    4.46011946E-01    4.83683355E-01   
                   9.00000000E+01    2.68000000E+02   -3.58744902E-02   -4.71777044E-02   -1.04768037E-01    1.43391963E-01    4.41420765E-02    3.96313125E-01    4.40455202E-01   
                   9.00000000E+01    2.70000000E+02   -2.43692813E-02   -5.60070721E-02   -1.09343195E-01    1.15228148E-01    4.68807808E-02    3.17093013E-01    3.63973793E-01   
                   9.00000000E+01    2.72000000E+02   -1.03425801E-02   -5.91918089E-02   -1.01752457E-01    8.73414513E-02    4.53726304E-02    2.25969629E-01    2.71342259E-01   
                   9.00000000E+01    2.74000000E+02    3.57696315E-03   -5.62312109E-02   -8.36864351E-02    6.50833075E-02    3.98950065E-02    1.41236661E-01    1.81131667E-01   
                   9.00000000E+01    2.76000000E+02    1.48177225E-02   -4.77916880E-02   -5.89175587E-02    5.23385254E-02    3.14612954E-02    7.80447009E-02    1.09505996E-01   
                   9.00000000E+01    2.78000000E+02    2.13604073E-02   -3.55562057E-02   -3.23865820E-02    5.08307503E-02    2.16205759E-02    4.56493000E-02    6.72698759E-02   
                   9.00000000E+01    2.80000000E+02    2.21106592E-02   -2.18749407E-02   -9.11392902E-03    5.99174438E-02    1.21566350E-02    4.61583373E-02    5.83149724E-02   
                   9.00000000E+01    2.82000000E+02    1.70758033E-02   -9.29619218E-03    6.82552539E-03    7.68825107E-02    4.75011631E-03    7.48642566E-02    7.96143729E-02   
                   9.00000000E+01    2.84000000E+02    7.31810649E-03   -7.92022531E-05    1.30567028E-02    9.76274795E-02    6.73066818E-04    1.21913929E-01    1.22586996E-01   
                   9.00000000E+01    2.86000000E+02   -5.29367465E-03    4.21107002E-03    9.25490270E-03    1.17585299E-01    5.74988136E-04    1.74822793E-01    1.75397781E-01   
                   9.00000000E+01    2.88000000E+02   -1.84712966E-02    2.95115486E-03   -2.94237146E-03    1.32649678E-01    4.39694934E-03    2.21225861E-01    2.25622810E-01   
                   9.00000000E+01    2.90000000E+02   -2.99452499E-02   -3.48876272E-03   -2.04017464E-02    1.39930296E-01    1.14214418E-02    2.51286181E-01    2.62707623E-01   
                   9.00000000E+01    2.92000000E+02   -3.78640333E-02   -1.38810401E-02   -3.92058014E-02    1.38201014E-01    2.04375467E-02    2.59327353E-01    2.79764900E-01   
                   9.00000000E+01    2.94000000E+02   -4.10813226E-02   -2.64206367E-02   -5.54427800E-02    1.27986870E-01    2.99799060E-02    2.44472968E-01    2.74452874E-01   
                   9.00000000E+01    2.96000000E+02   -3.92886262E-02   -3.90805301E-02   -6.59118616E-02    1.11315715E-01    3.85898662E-02    2.10305274E-01    2.48895140E-01   
                   9.00000000E+01    2.98000000E+02   -3.29868562E-02   -4.99674417E-02   -6.86203301E-02    9.12238768E-02    4.50489045E-02    1.63746663E-01    2.08795568E-01   
                   9.00000000E+01    3.00000000E+02   -2.33225558E-02   -5.76127943E-02   -6.30075403E-02    7.11408052E-02    4.85460973E-02    1.13486444E-01    1.62032542E-01   
                   9.00000000E+01    3.02000000E+02   -1.18367574E-02   -6.11556366E-02   -4.98931912E-02    5.42820899E-02    4.87590349E-02    6.83092301E-02    1.17068265E-01   
                   9.00000000E+01    3.04000000E+02   -1.83474459E-04   -6.04013231E-02   -3.12000322E-02    4.31579340E-02    4.58465621E-02    3.56388463E-02    8.14854084E-02   
                   9.00000000E+01    3.06000000E+02    1.01289868E-02   -5.57653881E-02   -9.53453566E-03    3.92646667E-02    4.03678934E-02    2.05161259E-02    6.08840193E-02   
                   9.00000000E+01    3.08000000E+02    1.79341810E-02   -4.81312099E-02    1.22799351E-02    4.29816306E-02    3.31532048E-02    2.51103401E-02    5.82635449E-02   
                   9.00000000E+01    3.10000000E+02    2.25199160E-02   -3.86600727E-02    3.16320750E-02    5.36551240E-02    2.51547052E-02    4.87507385E-02    7.39054437E-02   
                   9.00000000E+01    3.12000000E+02    2.36543856E-02   -2.85929753E-02    4.64515055E-02    6.98221614E-02    1.73050007E-02    8.83777337E-02    1.05682734E-01   
                   9.00000000E+01    3.14000000E+02    2.15387559E-02   -1.90768668E-02    5.54049599E-02    8.95126933E-02    1.04030052E-02    1.39263433E-01    1.49666438E-01   
                   9.00000000E+01    3.16000000E+02    1.67084514E-02   -1.10369070E-02    5.79560321E-02    1.10568921E-01    5.03893445E-03    1.95839194E-01    2.00878128E-01   
                   9.00000000E+01    3.18000000E+02    9.90877627E-03   -5.10401067E-03    5.43075686E-02    1.30931064E-01    1.56118019E-03    2.52486730E-01    2.54047910E-01   
                   9.00000000E+01    3.20000000E+02    1.96862549E-03   -1.59596540E-03    4.52598849E-02    1.48855760E-01    8.07086697E-05    3.04187782E-01    3.04268490E-01   
                   9.00000000E+01    3.22000000E+02   -6.30939833E-03   -5.42482366E-04    3.20230487E-02    1.63051561E-01    5.03946577E-04    3.46973667E-01    3.47477614E-01   