##File Type: Far field
##File Format: 5
##Source: RWG_wire_XY_rad_theta450.34
##Date: 2020-09-16 10:50:29
** File exported by POSTFEKO version 2018-319328 (x64)

#Configuration Name: StandardConfiguration1
#Request Name: FarField1
#Frequency: 3.00000000E+08
#Coordinate System: Spherical
#No. of Theta Samples: 1
#No. of Phi Samples: 181
#Result Type: RCS
#Incident Wave Direction: (4.50000000E+01, 0.00000000E+00)
#No. of Header Lines: 1
#                 "Theta"           "Phi"             "Re(Etheta)"      "Im(Etheta)"      "Re(Ephi)"        "Im(Ephi)"        "RCS(Theta)"      "RCS(Phi)"        "RCS(Total)"      
                   9.00000000E+01    0.00000000E+00   -3.60688397E-01   -3.01445949E-01   -3.41666724E-04    2.61080402E-04    2.77673788E+00    2.32351094E-06    2.77674020E+00   
                   9.00000000E+01    2.00000000E+00   -3.61943099E-01   -2.99566198E-01    7.21301076E-03    9.25097169E-03    2.77393475E+00    1.72923315E-03    2.77566398E+00   
                   9.00000000E+01    4.00000000E+00   -3.65661109E-01   -2.93847577E-01    1.48905951E-02    1.79764136E-02    2.76528571E+00    6.84718000E-03    2.77213289E+00   
                   9.00000000E+01    6.00000000E+00   -3.71582047E-01   -2.84151477E-01    2.27905112E-02    2.61662182E-02    2.74971390E+00    1.51308951E-02    2.76484479E+00   
                   9.00000000E+01    8.00000000E+00   -3.79264344E-01   -2.70270031E-01    3.09753052E-02    3.35366338E-02    2.72548660E+00    2.61905198E-02    2.75167712E+00   
                   9.00000000E+01    1.00000000E+01   -3.88077116E-01   -2.51961610E-01    3.94513945E-02    3.97902255E-02    2.69031545E+00    3.94543143E-02    2.72976976E+00   
                   9.00000000E+01    1.20000000E+01   -3.97194117E-01   -2.29000476E-01    4.81495721E-02    4.46207888E-02    2.64150620E+00    5.41534684E-02    2.69565967E+00   
                   9.00000000E+01    1.40000000E+01   -4.05594840E-01   -2.01239722E-01    5.69064484E-02    4.77261067E-02    2.57616378E+00    6.93176727E-02    2.64548145E+00   
                   9.00000000E+01    1.60000000E+01   -4.12078848E-01   -1.68685260E-01    6.54489819E-02    4.88299377E-02    2.49145505E+00    8.37917054E-02    2.57524676E+00   
                   9.00000000E+01    1.80000000E+01   -4.15299793E-01   -1.31576666E-01    7.33852836E-02    4.77138251E-02    2.38492545E+00    9.62836442E-02    2.48120909E+00   
                   9.00000000E+01    2.00000000E+01   -4.13825144E-01   -9.04681241E-02    8.02057842E-02    4.42580287E-02    2.25485590E+00    1.05453727E-01    2.36030963E+00   
                   9.00000000E+01    2.20000000E+01   -4.06226016E-01   -4.62999114E-02    8.52993799E-02    3.84890543E-02    2.10063545E+00    1.10048627E-01    2.21068408E+00   
                   9.00000000E+01    2.40000000E+01   -3.91198426E-01   -4.48156045E-04    8.79889925E-02    3.06289559E-02    1.92311224E+00    1.09078557E-01    2.03219079E+00   
                   9.00000000E+01    2.60000000E+01   -3.67712724E-01    4.52612517E-02    8.75897727E-02    2.11390285E-02    1.72487546E+00    1.02024187E-01    1.82689965E+00   
                   9.00000000E+01    2.80000000E+01   -3.35181936E-01    8.85890481E-02    8.34906472E-02    1.07481278E-02    1.51041428E+00    8.90479464E-02    1.59946223E+00   
                   9.00000000E+01    3.00000000E+01   -2.93632960E-01    1.26981641E-01    7.52559615E-02    4.54257852E-04    1.28610083E+00    7.11717271E-02    1.35727256E+00   
                   9.00000000E+01    3.20000000E+01   -2.43857823E-01    1.57740027E-01    6.27387739E-02   -8.51195847E-03    1.05995519E+00    5.03736436E-02    1.11032883E+00   
                   9.00000000E+01    3.40000000E+01   -1.87516999E-01    1.78257317E-01    4.61914879E-02   -1.47709913E-02    8.41171436E-01    2.95540395E-02    8.70725476E-01   
                   9.00000000E+01    3.60000000E+01   -1.27164739E-01    1.86312094E-01    2.63540227E-02   -1.69290988E-02    6.39415479E-01    1.23292294E-02    6.51744709E-01   
                   9.00000000E+01    3.80000000E+01   -6.61690807E-02    1.80391472E-01    4.49607698E-03   -1.37594522E-02    4.63943246E-01    2.63312254E-03    4.66576368E-01   
                   9.00000000E+01    4.00000000E+01   -8.50800297E-03    1.60004563E-01   -1.76100845E-02   -4.41428366E-03    3.22627067E-01    4.14188801E-03    3.26768955E-01   
                   9.00000000E+01    4.20000000E+01    4.15616935E-02    1.25936794E-01   -3.78049300E-02    1.13592140E-02    2.21010421E-01    1.95814776E-02    2.40591899E-01   
                   9.00000000E+01    4.40000000E+01    7.99456340E-02    8.03913901E-02   -5.37527124E-02    3.30369554E-02    1.61529133E-01    5.00241391E-02    2.11553272E-01   
                   9.00000000E+01    4.60000000E+01    1.03222701E-01    2.69690211E-02   -6.32392605E-02    5.92136929E-02    1.43033623E-01    9.43164611E-02    2.37350084E-01   
                   9.00000000E+01    4.80000000E+01    1.09162612E-01   -2.95480707E-02   -6.45269647E-02    8.76184564E-02    1.60718404E-01    1.48794914E-01    3.09513319E-01   
                   9.00000000E+01    5.00000000E+01    9.71712040E-02   -8.36154717E-02   -5.67166091E-02    1.15280155E-01    2.06513096E-01    2.07424131E-01    4.13937227E-01   
                   9.00000000E+01    5.20000000E+01    6.85792466E-02   -1.29524011E-01   -4.00496278E-02    1.38851671E-01    2.69920395E-01    2.62433058E-01    5.32353453E-01   
                   9.00000000E+01    5.40000000E+01    2.67002995E-02   -1.62113369E-01   -1.60784560E-02    1.55070136E-01    3.39212214E-01    3.05428955E-01    6.44641169E-01   
                   9.00000000E+01    5.60000000E+01   -2.33909047E-02   -1.77507833E-01    1.23585209E-02    1.61296849E-01    4.02829654E-01    3.28854463E-01    7.31684117E-01   
                   9.00000000E+01    5.80000000E+01   -7.53678591E-02   -1.73759517E-01    4.13953200E-02    1.56049819E-01    4.50789443E-01    3.27543941E-01    7.78333384E-01   
                   9.00000000E+01    6.00000000E+01   -1.22408723E-01   -1.51281699E-01    6.66273280E-02    1.39423747E-01    4.75889056E-01    3.00062084E-01    7.75951140E-01   
                   9.00000000E+01    6.20000000E+01   -1.58109653E-01   -1.12974036E-01    8.37788679E-02    1.13293842E-01    4.74528715E-01    2.49497664E-01    7.24026379E-01   
                   9.00000000E+01    6.40000000E+01   -1.77424964E-01   -6.39817594E-02    8.94493631E-02    8.12254772E-02    4.47027064E-01    1.83453513E-01    6.30480577E-01   
                   9.00000000E+01    6.60000000E+01   -1.77482904E-01   -1.10876056E-02    8.18034795E-02    4.80600295E-02    3.97387799E-01    1.13117136E-01    5.10504936E-01   
                   9.00000000E+01    6.80000000E+01   -1.58130048E-01    3.82008096E-02    6.10604174E-02    1.92110457E-02    3.32561635E-01    5.14899352E-02    3.84051570E-01   
                   9.00000000E+01    7.00000000E+01   -1.22088891E-01    7.67458094E-02    2.96584740E-02   -2.28749277E-04    2.61325423E-01    1.10543523E-02    2.72379776E-01   
                   9.00000000E+01    7.20000000E+01   -7.46690773E-02    9.88906398E-02   -7.97708191E-03   -6.41572596E-03    1.92954481E-01    1.31689753E-03    1.94271379E-01   
                   9.00000000E+01    7.40000000E+01   -2.30446543E-02    1.01402629E-01   -4.60600519E-02    2.46073005E-03    1.35887069E-01    2.67360037E-02    1.62623073E-01   
                   9.00000000E+01    7.60000000E+01    2.48140670E-02    8.40777947E-02   -7.83779977E-02    2.57070083E-02    9.65702144E-02    8.55010930E-02    1.82071307E-01   
                   9.00000000E+01    7.80000000E+01    6.13983135E-02    4.98808756E-02   -9.93786514E-02    6.00857055E-02    7.86385208E-02    1.69475206E-01    2.48113727E-01   
                   9.00000000E+01    8.00000000E+01    8.09073699E-02    4.56556234E-03   -1.05207863E-01    1.00247367E-01    8.25214314E-02    2.65379492E-01    3.47900923E-01   
                   9.00000000E+01    8.20000000E+01    8.02693583E-02   -4.41938167E-02   -9.44958040E-02    1.39580303E-01    1.05510557E-01    3.57037203E-01    4.62547759E-01   
                   9.00000000E+01    8.40000000E+01    5.97452644E-02   -8.80395658E-02   -6.87278452E-02    1.71338978E-01    1.42257118E-01    4.28268973E-01    5.70526091E-01   
                   9.00000000E+01    8.60000000E+01    2.29849092E-02   -1.19342758E-01   -3.21115367E-02    1.89851112E-01    1.85617858E-01    4.65893110E-01    6.51510968E-01   
                   9.00000000E+01    8.80000000E+01   -2.35076262E-02   -1.32550293E-01    9.05428729E-03    1.91582597E-01    2.27730139E-01    4.62264894E-01    6.89995034E-01   
                   9.00000000E+01    9.00000000E+01   -7.14370553E-02   -1.25221309E-01    4.74080819E-02    1.75861934E-01    2.61174785E-01    4.16888669E-01    6.78063455E-01   
                   9.00000000E+01    9.20000000E+01   -1.12144164E-01   -9.85473782E-02    7.57771955E-02    1.45126795E-01    2.80078003E-01    3.36828621E-01    6.16906625E-01   
                   9.00000000E+01    9.40000000E+01   -1.38153451E-01   -5.72338950E-02    8.84372858E-02    1.04641041E-01    2.81010370E-01    2.35882100E-01    5.16892470E-01   
                   9.00000000E+01    9.60000000E+01   -1.44558662E-01   -8.73389110E-03    8.21639001E-02    6.17237831E-02    2.63560618E-01    1.32710071E-01    3.96270688E-01   
                   9.00000000E+01    9.80000000E+01   -1.29978383E-01    3.80499093E-02    5.68981619E-02    2.46149961E-02    2.30494576E-01    4.82963178E-02    2.78790894E-01   
                   9.00000000E+01    1.00000000E+02   -9.68837003E-02    7.43689582E-02    1.59150837E-02    1.16104889E-03    1.87454980E-01    3.19987452E-03    1.90654854E-01   
                   9.00000000E+01    1.02000000E+02   -5.12148531E-02    9.32421960E-02   -3.45345822E-02   -2.47020222E-03    1.42214474E-01    1.50638019E-02    1.57278276E-01   
                   9.00000000E+01    1.04000000E+02   -1.34204614E-03    9.07694256E-02   -8.60542177E-02    1.71567106E-02    1.03558074E-01    9.67570464E-02    2.00315121E-01   
                   9.00000000E+01    1.06000000E+02    4.34418366E-02    6.68866211E-02   -1.29275994E-01    6.00842674E-02    7.99348500E-02    2.55378834E-01    3.35313684E-01   
                   9.00000000E+01    1.08000000E+02    7.46117257E-02    2.54121237E-02   -1.55202903E-01    1.22794302E-01    7.80709104E-02    4.92179271E-01    5.70250181E-01   
                   9.00000000E+01    1.10000000E+02    8.59602957E-02   -2.66264642E-02   -1.56518388E-01    1.98557247E-01    1.01764241E-01    8.03279933E-01    9.05044175E-01   
                   9.00000000E+01    1.12000000E+02    7.47126962E-02   -8.02511261E-02   -1.28671746E-01    2.78244824E-01    1.51075800E-01    1.18094479E+00    1.33202059E+00   
                   9.00000000E+01    1.14000000E+02    4.20022970E-02   -1.26129921E-01   -7.05838506E-02    3.51484966E-01    2.22084838E-01    1.61507721E+00    1.83716205E+00   
                   9.00000000E+01    1.16000000E+02   -7.36480090E-03   -1.56202814E-01    1.51233046E-02    4.07989388E-01    3.07292491E-01    2.09461361E+00    2.40190610E+00   
                   9.00000000E+01    1.18000000E+02   -6.57867425E-02   -1.65034515E-01    1.22397350E-01    4.38862604E-01    3.96648525E-01    2.60854602E+00    3.00519454E+00   
                   9.00000000E+01    1.20000000E+02   -1.24193866E-01   -1.50659947E-01    2.42476334E-01    4.37709121E-01    4.79061915E-01    3.14641873E+00    3.62548064E+00   
                   9.00000000E+01    1.22000000E+02   -1.73562623E-01   -1.14799550E-01    3.64944824E-01    4.01391622E-01    5.44160554E-01    3.69828235E+00    4.24244290E+00   
                   9.00000000E+01    1.24000000E+02   -2.06334994E-01   -6.24495984E-02    4.78966319E-01    3.30350499E-01    5.84010541E-01    4.25422146E+00    4.83823200E+00   
                   9.00000000E+01    1.26000000E+02   -2.17504597E-01   -9.68319646E-04    5.74515577E-01    2.28463963E-01    5.94504784E-01    4.80367022E+00    5.39817501E+00   
                   9.00000000E+01    1.28000000E+02   -2.05214970E-01    6.11410782E-02    6.43445699E-01    1.02496132E-01    5.76185881E-01    5.33477398E+00    5.91095986E+00   
                   9.00000000E+01    1.30000000E+02   -1.70820006E-01    1.15517137E-01    6.80261113E-01   -3.87636085E-02    5.34368367E-01    5.83403557E+00    6.36840394E+00   
                   9.00000000E+01    1.32000000E+02   -1.18457278E-01    1.55079388E-01    6.82520932E-01   -1.85531500E-01    4.78549300E-01    6.28641184E+00    6.76496114E+00   
                   9.00000000E+01    1.34000000E+02   -5.42622589E-02    1.74857275E-01    6.50857049E-01   -3.28081818E-01    4.21217951E-01    6.67591679E+00    7.09713474E+00   
                   9.00000000E+01    1.36000000E+02    1.46064182E-02    1.72421956E-01    5.88647016E-01   -4.57685812E-01    3.76270796E-01    6.98667099E+00    7.36294179E+00   
                   9.00000000E+01    1.38000000E+02    8.09558808E-02    1.47913390E-01    5.01424320E-01   -5.67334753E-01    3.57289884E-01    7.20423833E+00    7.56152821E+00   
                   9.00000000E+01    1.40000000E+02    1.38414271E-01    1.03721825E-01    3.96133011E-01   -6.52188210E-01    3.75944682E-01    7.31703096E+00    7.69297565E+00   
                   9.00000000E+01    1.42000000E+02    1.82051998E-01    4.39268875E-02    2.80338300E-01   -7.09734261E-01    4.40734052E-01    7.31755197E+00    7.75828602E+00   
                   9.00000000E+01    1.44000000E+02    2.08723758E-01   -2.63846109E-02    1.61492331E-01   -7.39688435E-01    5.56209617E-01    7.20327931E+00    7.75948893E+00   
                   9.00000000E+01    1.46000000E+02    2.17137205E-01   -1.01806880E-01    4.63298166E-02   -7.43687196E-01    7.22732271E-01    6.97706382E+00    7.69979609E+00   
                   9.00000000E+01    1.48000000E+02    2.07693220E-01   -1.77217360E-01   -5.95622544E-02   -7.24847372E-01    9.36728256E-01    6.64699900E+00    7.58372726E+00   
                   9.00000000E+01    1.50000000E+02    1.82165683E-01   -2.48233431E-01   -1.51987056E-01   -6.87265395E-01    1.19134436E+00    6.22580459E+00    7.41714896E+00   
                   9.00000000E+01    1.52000000E+02    1.43295675E-01   -3.11498108E-01   -2.28204583E-01   -6.35521996E-01    1.47736186E+00    5.72983195E+00    7.20719382E+00   
                   9.00000000E+01    1.54000000E+02    9.43689448E-02   -3.64798588E-01   -2.86852962E-01   -5.74242810E-01    1.78421738E+00    5.17784014E+00    6.96205752E+00   
                   9.00000000E+01    1.56000000E+02    3.88308032E-02   -4.07042792E-01   -3.27764909E-01   -5.07747061E-01    2.10099243E+00    4.58970242E+00    6.69069486E+00   
                   9.00000000E+01    1.58000000E+02   -2.00260051E-02   -4.38130951E-01   -3.51722156E-01   -4.39798576E-01    2.41726417E+00    3.98518898E+00    6.40245315E+00   
                   9.00000000E+01    1.60000000E+02   -7.92834044E-02   -4.58762713E-01   -3.60187011E-01   -3.73458178E-01    2.72374934E+00    3.38293852E+00    6.10668786E+00   
                   9.00000000E+01    1.62000000E+02   -1.36528647E-01   -4.70217015E-01   -3.55042698E-01   -3.11025568E-01    3.01271338E+00    2.79968962E+00    5.81240300E+00   
                   9.00000000E+01    1.64000000E+02   -1.89903393E-01   -4.74134654E-01   -3.38364870E-01   -2.54052235E-01    3.27815101E+00    2.24979910E+00    5.52795010E+00   
                   9.00000000E+01    1.66000000E+02   -2.38087735E-01   -4.72324334E-01   -3.12237469E-01   -2.03404515E-01    3.51576949E+00    1.74503702E+00    5.26080651E+00   
                   9.00000000E+01    1.68000000E+02   -2.80238224E-01   -4.66603881E-01   -2.78618072E-01   -1.59356682E-01    3.72282053E+00    1.29461995E+00    5.01744047E+00   
                   9.00000000E+01    1.70000000E+02   -3.15898424E-01   -4.58680502E-01   -2.39251795E-01   -1.21696835E-01    3.89783202E+00    9.05426371E-01    4.80325840E+00   
                   9.00000000E+01    1.72000000E+02   -3.44897987E-01   -4.50068151E-01   -1.95628744E-01   -8.98323885E-02    4.04028874E+00    5.82331437E-01    4.62262018E+00   
                   9.00000000E+01    1.74000000E+02   -3.67252803E-01   -4.42036288E-01   -1.48977836E-01   -6.28863445E-02    4.15030403E+00    3.28599129E-01    4.47890316E+00   
                   9.00000000E+01    1.76000000E+02   -3.83075224E-01   -4.35582436E-01   -1.00289169E-01   -3.97796255E-02    4.22831586E+00    1.46276777E-01    4.37459264E+00   
                   9.00000000E+01    1.78000000E+02   -3.92500251E-01   -4.31420679E-01   -5.03574304E-02   -1.92982394E-02    4.27483108E+00    3.65466856E-02    4.31137777E+00   
                   9.00000000E+01    1.80000000E+02   -3.95631137E-01   -4.29979010E-01    1.60247014E-04   -1.46809140E-04    4.29023364E+00    5.93535181E-07    4.29023424E+00   
                   9.00000000E+01    1.82000000E+02   -3.92506224E-01   -4.31400055E-01    5.06775318E-02    1.90080280E-02    4.27466640E+00    3.68134008E-02    4.31147980E+00   
                   9.00000000E+01    1.84000000E+02   -3.83087800E-01   -4.35541723E-01    1.00607944E-01    3.94995858E-02    4.22799127E+00    1.46802550E-01    4.37479382E+00   
                   9.00000000E+01    1.86000000E+02   -3.67273200E-01   -4.41976597E-01    1.49293912E-01    6.26230833E-02    4.14982921E+00    3.29368629E-01    4.47919784E+00   
                   9.00000000E+01    1.88000000E+02   -3.44927927E-01   -4.49991256E-01    1.95940038E-01    8.95922137E-02    4.03967855E+00    5.83321666E-01    4.62300022E+00   
                   9.00000000E+01    1.90000000E+02   -3.15939987E-01   -4.58588947E-01    2.39555279E-01    1.21485565E-01    3.89710670E+00    9.06606769E-01    4.80371347E+00   
                   9.00000000E+01    1.92000000E+02   -2.80293652E-01   -4.66501106E-01    2.78909593E-01    1.59179390E-01    3.72200584E+00    1.29595270E+00    5.01795854E+00   
                   9.00000000E+01    1.94000000E+02   -2.38159154E-01   -4.72214784E-01    3.12511654E-01    2.03265208E-01    3.51489661E+00    1.74647769E+00    5.26137429E+00   
                   9.00000000E+01    1.96000000E+02   -1.89992464E-01   -4.74023845E-01    3.38615141E-01    2.53953474E-01    3.27725595E+00    2.25129772E+00    5.52855367E+00   
                   9.00000000E+01    1.98000000E+02   -1.36636144E-01   -4.70111524E-01    3.55261435E-01    3.10968038E-01    3.01183583E+00    2.80119239E+00    5.81302823E+00   
                   9.00000000E+01    2.00000000E+02   -7.94087425E-02   -4.58670033E-01    3.60365888E-01    3.73440269E-01    2.72293080E+00    3.38439010E+00    6.10732090E+00   
                   9.00000000E+01    2.02000000E+02   -2.01667417E-02   -4.38059194E-01    3.51852665E-01    4.39816007E-01    2.41654517E+00    3.98653553E+00    6.40308070E+00   
                   9.00000000E+01    2.04000000E+02    3.86794222E-02   -4.07000181E-01    3.27839087E-01    5.07792634E-01    2.10040910E+00    4.59089513E+00    6.69130423E+00   
                   9.00000000E+01    2.06000000E+02    9.42143265E-02   -3.64792741E-01    2.86864286E-01    5.74306370E-01    1.78379736E+00    5.17883914E+00    6.96263650E+00   
                   9.00000000E+01    2.08000000E+02    1.43148009E-01   -3.11535109E-01    2.28148971E-01    6.35590686E-01    1.47712002E+00    5.73061024E+00    7.20773027E+00   
                   9.00000000E+01    2.10000000E+02    1.82037755E-01   -2.48316756E-01    1.51863885E-01    6.87324276E-01    1.19127881E+00    6.22635138E+00    7.41763019E+00   
                   9.00000000E+01    2.12000000E+02    2.07599818E-01   -1.77346747E-01    5.93752493E-02    7.24880447E-01    9.36817311E-01    6.64732206E+00    7.58413937E+00   
                   9.00000000E+01    2.14000000E+02    2.17094043E-01   -1.01977308E-01   -4.65719915E-02    7.43678825E-01    7.22933182E-01    6.97719007E+00    7.70012326E+00   
                   9.00000000E+01    2.16000000E+02    2.08745919E-01   -2.65855775E-02   -1.61775953E-01    7.39625061E-01    5.56459647E-01    7.20325337E+00    7.75971301E+00   
                   9.00000000E+01    2.18000000E+02    1.82151970E-01    4.37115628E-02   -2.80645102E-01    7.09606279E-01    4.40954458E-01    7.31743211E+00    7.75838656E+00   
                   9.00000000E+01    2.20000000E+02    1.38599741E-01    1.03513458E-01   -3.96441431E-01    6.51991741E-01    3.76047690E-01    7.31688286E+00    7.69293055E+00   
                   9.00000000E+01    2.22000000E+02    8.12275922E-02    1.47737000E-01   -5.01711480E-01    5.67073005E-01    3.57188312E-01    7.20412688E+00    7.56131520E+00   
                   9.00000000E+01    2.24000000E+02    1.49564380E-02    1.72303893E-01   -5.88891315E-01    4.57369722E-01    3.75889382E-01    6.98665129E+00    7.36254067E+00   
                   9.00000000E+01    2.26000000E+02   -5.38514203E-02    1.74822037E-01   -6.51041081E-01    3.27729680E-01    4.20504942E-01    6.67602554E+00    7.09653048E+00   
                   9.00000000E+01    2.28000000E+02   -1.18012317E-01    1.55145925E-01   -6.82634313E-01    1.85167404E-01    4.77486458E-01    6.28666082E+00    6.76414728E+00   
                   9.00000000E+01    2.30000000E+02   -1.70374973E-01    1.15695151E-01   -6.80302723E-01    3.84147127E-02    5.32977471E-01    5.83440860E+00    6.36738607E+00   
                   9.00000000E+01    2.32000000E+02   -2.04807840E-01    6.14279619E-02   -6.43424797E-01   -1.02803285E-01    5.74530014E-01    5.33522839E+00    5.90975840E+00   
                   9.00000000E+01    2.34000000E+02   -2.17172508E-01   -5.89214043E-04   -5.74451397E-01   -2.28707590E-01    5.92683389E-01    4.80414321E+00    5.39682660E+00   
                   9.00000000E+01    2.36000000E+02   -2.06108691E-01   -6.20087440E-02   -4.78885906E-01   -3.30517527E-01    5.82148140E-01    4.25464066E+00    4.83678880E+00   
                   9.00000000E+01    2.38000000E+02   -1.73460947E-01   -1.14338716E-01   -3.64879220E-01   -4.01480664E-01    5.42390216E-01    3.69857904E+00    4.24096926E+00   
                   9.00000000E+01    2.40000000E+02   -1.24219298E-01   -1.50227359E-01   -2.42455567E-01   -4.37731759E-01    4.77505666E-01    3.14654123E+00    3.62404689E+00   
                   9.00000000E+01    2.42000000E+02   -6.59230259E-02   -1.64678186E-01   -1.22444990E-01   -4.38842473E-01    3.95397715E-01    2.60847056E+00    3.00386828E+00   
                   9.00000000E+01    2.44000000E+02   -7.57741093E-03   -1.55962963E-01   -1.52515931E-02   -4.07958918E-01    3.06391527E-01    2.09435016E+00    2.40074169E+00   
                   9.00000000E+01    2.46000000E+02    4.17624751E-02   -1.26031774E-01    7.03772690E-02   -3.51480123E-01    2.21521395E-01    1.61466850E+00    1.83618989E+00   
                   9.00000000E+01    2.48000000E+02    7.45027439E-02   -8.02995052E-02    1.28404644E-01   -2.78298637E-01    1.50779726E-01    1.18045827E+00    1.33123799E+00   
                   9.00000000E+01    2.50000000E+02    8.58365855E-02   -2.68034019E-02    1.56221889E-01   -1.98693291E-01    1.01615967E-01    8.02793820E-01    9.04409787E-01   
                   9.00000000E+01    2.52000000E+02    7.46206305E-02    2.51459484E-02    1.54916663E-01   -1.23021435E-01    7.79184999E-02    4.91765387E-01    5.69683887E-01   
                   9.00000000E+01    2.54000000E+02    4.36115521E-02    6.65865551E-02    1.29041343E-01   -6.03938000E-02    7.96172166E-02    2.55085752E-01    3.34702969E-01   
                   9.00000000E+01    2.56000000E+02   -1.00689409E-03    9.04983410E-02    8.59064969E-02   -1.75227738E-02    1.02930684E-01    9.65973618E-02    1.99528046E-01   
                   9.00000000E+01    2.58000000E+02   -5.07345880E-02    9.30602672E-02    3.44961767E-02    2.08695254E-03    1.41173268E-01    1.50085389E-02    1.56181807E-01   
                   9.00000000E+01    2.60000000E+02   -9.63004862E-02    7.43236316E-02   -1.58395732E-02   -1.51514654E-03    1.85954461E-01    3.18165107E-03    1.89136112E-01   
                   9.00000000E+01    2.62000000E+02   -1.29349075E-01    3.81680508E-02   -5.67235312E-02   -2.48946775E-02    2.28556940E-01    4.82209837E-02    2.76777924E-01   
                   9.00000000E+01    2.64000000E+02   -1.43944943E-01   -8.45006053E-03   -8.19223073E-02   -6.18929378E-02    2.61274323E-01    1.32474681E-01    3.93749005E-01   
                   9.00000000E+01    2.66000000E+02   -1.37611192E-01   -5.68062236E-02   -8.81729038E-02   -1.04679176E-01    2.78518364E-01    2.35395654E-01    5.13914018E-01   
                   9.00000000E+01    2.68000000E+02   -1.11714167E-01   -9.80166928E-02   -7.55385948E-02   -1.45032570E-01    2.77557540E-01    3.36031356E-01    6.13588895E-01   
                   9.00000000E+01    2.70000000E+02   -7.11390291E-02   -1.24638909E-01   -4.72398724E-02   -1.75653066E-01    2.58812183E-01    4.15765976E-01    6.74578158E-01   
                   9.00000000E+01    2.72000000E+02   -2.33385586E-02   -1.31967861E-01   -8.98969924E-03   -1.91292204E-01    2.25694589E-01    4.60853068E-01    6.86547657E-01   
                   9.00000000E+01    2.74000000E+02    2.30478075E-02   -1.18802834E-01    3.20556806E-02   -1.89521316E-01    1.84038452E-01    4.64275821E-01    6.48314273E-01   
                   9.00000000E+01    2.76000000E+02    5.97378644E-02   -8.75685518E-02    6.85528535E-02   -1.71013125E-01    1.41206594E-01    4.26565234E-01    5.67771828E-01   
                   9.00000000E+01    2.78000000E+02    8.02317833E-02   -4.37988593E-02    9.42193452E-02   -1.39295418E-01    1.04998047E-01    3.55383223E-01    4.60381271E-01   
                   9.00000000E+01    2.80000000E+02    8.08750460E-02    4.89538344E-03    1.04859242E-01   -1.00028305E-01    8.24949287E-02    2.63907888E-01    3.46402817E-01   
                   9.00000000E+01    2.82000000E+02    6.13948386E-02    5.01695946E-02    9.89922537E-02   -5.99420611E-02    7.89961568E-02    1.68295332E-01    2.47291489E-01   
                   9.00000000E+01    2.84000000E+02    2.48473179E-02    8.43551839E-02    7.79863207E-02   -2.56331805E-02    9.71780846E-02    8.46838437E-02    1.81861928E-01   
                   9.00000000E+01    2.86000000E+02   -2.29825639E-02    1.01696194E-01    4.56877239E-02   -2.43889174E-03    1.36600396E-01    2.63053885E-02    1.62905785E-01   
                   9.00000000E+01    2.88000000E+02   -7.45982707E-02    9.92187861E-02    7.63695194E-03    6.41058062E-03    1.93638592E-01    1.24933071E-03    1.94887922E-01   
                   9.00000000E+01    2.90000000E+02   -1.22035682E-01    7.71135942E-02   -2.99665958E-02    2.22844294E-04    2.61873288E-01    1.12851854E-02    2.73158473E-01   
                   9.00000000E+01    2.92000000E+02   -1.58119891E-01    3.85990027E-02   -6.13483731E-02   -1.91959084E-02    3.32905564E-01    5.19255726E-02    3.84831136E-01   
                   9.00000000E+01    2.94000000E+02   -1.77533938E-01   -1.06802012E-02   -8.20912459E-02   -4.80107431E-02    3.97504033E-01    1.13650307E-01    5.11154341E-01   
                   9.00000000E+01    2.96000000E+02   -1.77543492E-01   -6.35934758E-02   -8.97602755E-02   -8.11398626E-02    4.46933298E-01    1.83979009E-01    6.30912307E-01   
                   9.00000000E+01    2.98000000E+02   -1.58288347E-01   -1.12634208E-01   -8.41345966E-02   -1.13180629E-01    4.74275756E-01    2.49926076E-01    7.24201832E-01   
                   9.00000000E+01    3.00000000E+02   -1.22627704E-01   -1.51014589E-01   -6.70435473E-02   -1.39300538E-01    4.75548659E-01    3.00329688E-01    7.75878347E-01   
                   9.00000000E+01    3.02000000E+02   -7.55982033E-02   -1.73579513E-01   -4.18787693E-02   -1.55939602E-01    4.50440745E-01    3.27617734E-01    7.78058479E-01   
                   9.00000000E+01    3.04000000E+02   -2.35996776E-02   -1.77416723E-01   -1.29058191E-02   -1.61223819E-01    4.02546571E-01    3.28732234E-01    7.31278805E-01   
                   9.00000000E+01    3.06000000E+02    2.65445601E-02   -1.62100028E-01    1.54802322E-02   -1.55055606E-01    3.39053656E-01    3.05135087E-01    6.44188743E-01   
                   9.00000000E+01    3.08000000E+02    6.85016384E-02   -1.29566309E-01    3.94208944E-02   -1.38910728E-01    2.69924419E-01    2.62011307E-01    5.31935726E-01   
                   9.00000000E+01    3.10000000E+02    9.71869522E-02   -8.36838305E-02    5.60822479E-02   -1.15419499E-01    2.06695273E-01    2.06928909E-01    4.13624182E-01   
                   9.00000000E+01    3.12000000E+02    1.09275377E-01   -2.96098924E-02    6.39128964E-02   -8.78356121E-02    1.61073901E-01    1.48282584E-01    3.09356484E-01   
                   9.00000000E+01    3.14000000E+02    1.03424756E-01    2.69448922E-02    6.26691735E-02   -5.94975328E-02    1.43541975E-01    9.38378861E-02    2.37379861E-01   
                   9.00000000E+01    3.16000000E+02    8.02196349E-02    8.04308682E-02    5.32453861E-02   -3.33692920E-02    1.62160397E-01    4.96193297E-02    2.11779727E-01   
                   9.00000000E+01    3.18000000E+02    4.18835502E-02    1.26057897E-01    3.73724377E-02   -1.17170933E-02    2.21731413E-01    1.92766791E-02    2.41008092E-01   
                   9.00000000E+01    3.20000000E+02   -8.16573615E-03    1.60216114E-01    1.72569821E-02    4.05598840E-03    3.23406637E-01    3.94903820E-03    3.27355675E-01   
                   9.00000000E+01    3.22000000E+02   -6.58338563E-02    1.80693123E-01   -4.77262121E-03    1.34255187E-02    4.64755923E-01    2.55125553E-03    4.67307179E-01   