##File Type: Far field
##File Format: 5
##Source: RWG_wire_XY_rad_theta450.08
##Date: 2020-09-16 10:50:29
** File exported by POSTFEKO version 2018-319328 (x64)

#Configuration Name: StandardConfiguration1
#Request Name: FarField1
#Frequency: 3.00000000E+08
#Coordinate System: Spherical
#No. of Theta Samples: 1
#No. of Phi Samples: 181
#Result Type: RCS
#Incident Wave Direction: (4.50000000E+01, 0.00000000E+00)
#No. of Header Lines: 1
#                 "Theta"           "Phi"             "Re(Etheta)"      "Im(Etheta)"      "Re(Ephi)"        "Im(Ephi)"        "RCS(Theta)"      "RCS(Phi)"        "RCS(Total)"      
                   9.00000000E+01    0.00000000E+00   -1.02481877E-02   -3.81785519E-02   -7.29803543E-05   -2.48502796E-05    1.96365522E-02    7.46903414E-08    1.96366269E-02   
                   9.00000000E+01    2.00000000E+00   -1.03890951E-02   -3.81068360E-02    1.18362960E-02   -9.61251769E-03    1.96043455E-02    2.92166104E-03    2.25260066E-02   
                   9.00000000E+01    4.00000000E+00   -1.08051015E-02   -3.78900834E-02    2.35378119E-02   -1.94216583E-02    1.95081423E-02    1.17021738E-02    3.12103161E-02   
                   9.00000000E+01    6.00000000E+00   -1.14853117E-02   -3.75101845E-02    3.48126841E-02   -2.96640820E-02    1.93387186E-02    2.62873486E-02    4.56260672E-02   
                   9.00000000E+01    8.00000000E+00   -1.24101610E-02   -3.69380019E-02    4.54219399E-02   -4.05278800E-02    1.90811300E-02    4.65667181E-02    6.56478481E-02   
                   9.00000000E+01    1.00000000E+01   -1.35493666E-02   -3.61350783E-02    5.50990661E-02   -5.21637222E-02    1.87154630E-02    7.23441056E-02    9.10595685E-02   
                   9.00000000E+01    1.20000000E+01   -1.48593447E-02   -3.50563040E-02    6.35458963E-02   -6.46693307E-02    1.82180277E-02    1.03298121E-01    1.21516148E-01   
                   9.00000000E+01    1.40000000E+01   -1.62804180E-02   -3.36537663E-02    7.04332047E-02   -7.80721398E-02    1.75631114E-02    1.38934992E-01    1.56498103E-01   
                   9.00000000E+01    1.60000000E+01   -1.77342748E-02   -3.18819897E-02    7.54074714E-02   -9.23107121E-02    1.67254091E-02    1.78537393E-01    1.95262802E-01   
                   9.00000000E+01    1.80000000E+01   -1.91222886E-02   -2.97046871E-02    7.81052481E-02   -1.07216195E-01    1.56832120E-02    2.21114617E-01    2.36797829E-01   
                   9.00000000E+01    2.00000000E+01   -2.03254508E-02   -2.71029749E-02    7.81762996E-02   -1.22495924E-01    1.44223632E-02    2.65361350E-01    2.79783714E-01   
                   9.00000000E+01    2.20000000E+01   -2.12067672E-02   -2.40847334E-02    7.53161053E-02   -1.37722170E-01    1.29408655E-02    3.09634263E-01    3.22575128E-01   
                   9.00000000E+01    2.40000000E+01   -2.16169838E-02   -2.06944338E-02    6.93072972E-02   -1.52329781E-01    1.12538582E-02    3.51957196E-01    3.63211054E-01   
                   9.00000000E+01    2.60000000E+01   -2.14043751E-02   -1.70223114E-02    6.00681372E-02   -1.65627037E-01    9.39846848E-03    3.90066383E-01    3.99464851E-01   
                   9.00000000E+01    2.80000000E+01   -2.04289930E-02   -1.32113030E-02    4.77042191E-02   -1.76823955E-01    7.43781211E-03    4.21506274E-01    4.28944087E-01   
                   9.00000000E+01    3.00000000E+01   -1.85811979E-02   -9.45976785E-03    3.25573778E-02   -1.85081542E-01    5.46320603E-03    4.43783389E-01    4.49246595E-01   
                   9.00000000E+01    3.20000000E+01   -1.58034518E-02   -6.01779710E-03    1.52435902E-02   -1.89583580E-01    3.59351668E-03    4.54579671E-01    4.58173188E-01   
                   9.00000000E+01    3.40000000E+01   -1.21133073E-02   -3.17503120E-03   -3.33006771E-03   -1.89629502E-01    1.97057074E-03    4.52017849E-01    4.53988420E-01   
                   9.00000000E+01    3.60000000E+01   -7.62437817E-03   -1.23850170E-03   -2.19799803E-02   -1.84742681E-01    7.49772866E-04    4.34959507E-01    4.35709280E-01   
                   9.00000000E+01    3.80000000E+01   -2.56105631E-03   -5.00192329E-04   -3.93015169E-02   -1.74783423E-01    8.55669536E-05    4.03303265E-01    4.03388831E-01   
                   9.00000000E+01    4.00000000E+01    2.73787830E-03   -1.19580111E-03   -5.37714929E-02   -1.60050822E-01    1.12166392E-04    3.58237558E-01    3.58349724E-01   
                   9.00000000E+01    4.20000000E+01    7.83147615E-03   -3.45845402E-03   -6.38973711E-02   -1.41353485E-01    9.21026033E-04    3.02393143E-01    3.03314169E-01   
                   9.00000000E+01    4.40000000E+01    1.22081940E-02   -7.27356490E-03   -6.84043389E-02   -1.20027345E-01    2.53771254E-03    2.39838196E-01    2.42375909E-01   
                   9.00000000E+01    4.60000000E+01    1.53379108E-02   -1.24431584E-02   -6.64411042E-02   -9.78808472E-02    4.90193636E-03    1.75867369E-01    1.80769306E-01   
                   9.00000000E+01    4.80000000E+01    1.67418097E-02   -1.85691272E-02   -5.77750362E-02   -7.70547266E-02    7.85524679E-03    1.16557934E-01    1.24413181E-01   
                   9.00000000E+01    5.00000000E+01    1.60730622E-02   -2.50644030E-02   -4.29395493E-02   -5.97959334E-02    1.11409374E-02    6.81016680E-02    7.92426054E-02   
                   9.00000000E+01    5.20000000E+01    1.31966893E-02   -3.11983496E-02   -2.32941931E-02   -4.81619875E-02    1.44197799E-02    3.59674216E-02    5.03872015E-02   
                   9.00000000E+01    5.40000000E+01    8.25342249E-03   -3.61776533E-02   -9.63320771E-04   -4.36909881E-02    1.73031582E-02    2.39996370E-02    4.13027953E-02   
                   9.00000000E+01    5.60000000E+01    1.69110285E-03   -3.92569816E-02    2.13660183E-02   -4.70897522E-02    1.94021047E-02    3.36018655E-02    5.30039702E-02   
                   9.00000000E+01    5.80000000E+01   -5.75077514E-03   -3.98657475E-02    4.07825867E-02   -5.80033848E-02    2.03870418E-02    6.31788360E-02    8.35658778E-02   
                   9.00000000E+01    6.00000000E+01   -1.31117334E-02   -3.77301464E-02    5.45917063E-02   -7.49292178E-02    2.00494119E-02    1.08003458E-01    1.28052870E-01   
                   9.00000000E+01    6.20000000E+01   -1.93348488E-02   -3.29652526E-02    6.07937573E-02   -9.53230809E-02    1.83537404E-02    1.60628007E-01    1.78981748E-01   
                   9.00000000E+01    6.40000000E+01   -2.34317952E-02   -2.61123148E-02    5.85124971E-02   -1.15915740E-01    1.54679709E-02    2.11871159E-01    2.27339130E-01   
                   9.00000000E+01    6.60000000E+01   -2.46631076E-02   -1.81027077E-02    4.82765454E-02   -1.33215383E-01    1.17618327E-02    2.52294558E-01    2.64056390E-01   
                   9.00000000E+01    6.80000000E+01   -2.26996298E-02   -1.01422127E-02    3.20694837E-02   -1.44125772E-01    7.76774706E-03    2.73955550E-01    2.81723297E-01   
                   9.00000000E+01    7.00000000E+01   -1.77285364E-02   -3.52575037E-03    1.30990442E-02   -1.46569862E-01    4.10583437E-03    2.72116078E-01    2.76221913E-01   
                   9.00000000E+01    7.20000000E+01   -1.04729938E-02    5.89906728E-04   -4.70981682E-03   -1.39986961E-01    1.38269772E-03    2.46533740E-01    2.47916437E-01   
                   9.00000000E+01    7.40000000E+01   -2.10871893E-03    1.41381983E-03   -1.74293079E-02   -1.25577517E-01    8.09975728E-05    2.01985478E-01    2.02066476E-01   
                   9.00000000E+01    7.60000000E+01    5.91859220E-03   -1.29915531E-03   -2.19231732E-02   -1.06207347E-01    4.61406192E-04    1.47788386E-01    1.48249792E-01   
                   9.00000000E+01    7.80000000E+01    1.21479638E-02   -7.16015267E-03   -1.65559247E-02   -8.59488278E-02    2.49870733E-03    9.62747307E-02    9.87734380E-02   
                   9.00000000E+01    8.00000000E+01    1.53831779E-02   -1.51784915E-02   -1.64879854E-03   -6.93181005E-02    5.86885655E-03    6.04155610E-02    6.62844176E-02   
                   9.00000000E+01    8.20000000E+01    1.49403911E-02   -2.39186922E-02    2.04478154E-02   -6.03459855E-02    9.99427486E-03    5.10163372E-02    6.10106121E-02   
                   9.00000000E+01    8.40000000E+01    1.08073659E-02   -3.17586736E-02    4.57208665E-02   -6.16753879E-02    1.41423507E-02    7.40693439E-02    8.82116946E-02   
                   9.00000000E+01    8.60000000E+01    3.67386032E-03   -3.72004418E-02    6.92581696E-02   -7.38921004E-02    1.75598708E-02    1.28889953E-01    1.46449824E-01   
                   9.00000000E+01    8.80000000E+01   -5.18071835E-03   -3.91692339E-02    8.62698732E-02   -9.52607862E-02    1.96169682E-02    2.07560106E-01    2.27177074E-01   
                   9.00000000E+01    9.00000000E+01   -1.41245971E-02   -3.72361233E-02    9.31566079E-02   -1.21957547E-01    1.99306800E-02    2.95960609E-01    3.15891289E-01   
                   9.00000000E+01    9.20000000E+01   -2.14889637E-02   -3.17136859E-02    8.83865230E-02   -1.48781470E-01    1.84415691E-02    3.76338965E-01    3.94780534E-01   
                   9.00000000E+01    9.40000000E+01   -2.58954331E-02   -2.36015204E-02    7.29725878E-02   -1.70215453E-01    1.54265422E-02    4.31005137E-01    4.46431680E-01   
                   9.00000000E+01    9.60000000E+01   -2.65259458E-02   -1.43917774E-02    5.04223239E-02   -1.81619513E-01    1.14448102E-02    4.46458745E-01    4.57903556E-01   
                   9.00000000E+01    9.80000000E+01   -2.32780042E-02   -5.77615218E-03    2.61467041E-02   -1.80300473E-01    7.22854600E-03    4.17101851E-01    4.24330397E-01   
                   9.00000000E+01    1.00000000E+02   -1.67741006E-02    6.82740001E-04    6.43603180E-03   -1.66221705E-01    3.54166296E-03    3.47725016E-01    3.51266679E-01   
                   9.00000000E+01    1.02000000E+02   -8.22692786E-03    3.84623380E-03   -2.79128553E-03   -1.42191514E-01    1.03642218E-03    2.54170151E-01    2.55206573E-01   
                   9.00000000E+01    1.04000000E+02    8.06686044E-04    3.20108079E-03    2.79021404E-03   -1.13481031E-01    1.36944042E-04    1.61926856E-01    1.62063800E-01   
                   9.00000000E+01    1.06000000E+02    8.72773352E-03   -1.06922823E-03    2.49723236E-02   -8.69448284E-02    9.71588817E-04    1.02830864E-01    1.03802453E-01   
                   9.00000000E+01    1.08000000E+02    1.41888315E-02   -8.15014971E-03    6.25403890E-02   -6.98210395E-02    3.36461910E-03    1.10411623E-01    1.13776242E-01   
                   9.00000000E+01    1.10000000E+02    1.63220775E-02   -1.67763419E-02    1.11354721E-01   -6.84491664E-02    6.88455980E-03    2.14698482E-01    2.21583042E-01   
                   9.00000000E+01    1.12000000E+02    1.48616171E-02   -2.54821259E-02    1.64957332E-01   -8.71512348E-02    1.09353362E-02    4.37388353E-01    4.48323689E-01   
                   9.00000000E+01    1.14000000E+02    1.01468260E-02   -3.28676169E-02    2.15572943E-01   -1.27477314E-01    1.48690112E-02    7.88189898E-01    8.03058910E-01   
                   9.00000000E+01    1.16000000E+02    3.01754516E-03   -3.78286047E-02    2.55305479E-01   -1.87933535E-01    1.80969423E-02    1.26291900E+00    1.28101595E+00   
                   9.00000000E+01    1.18000000E+02   -5.36714804E-03   -3.97115375E-02    2.77309451E-01   -2.64211076E-01    2.01792349E-02    1.84358741E+00    1.86376664E+00   
                   9.00000000E+01    1.20000000E+02   -1.37443012E-02   -3.83745143E-02    2.76739594E-01   -3.49840994E-01    2.08791399E-02    2.50037504E+00    2.52125418E+00   
                   9.00000000E+01    1.22000000E+02   -2.09536324E-02   -3.41558397E-02    2.51341500E-01   -4.37131112E-01    2.01775209E-02    3.19507712E+00    3.21525464E+00   
                   9.00000000E+01    1.24000000E+02   -2.61004312E-02   -2.77688180E-02    2.01624047E-01   -5.18208138E-01    1.82506397E-02    3.88542039E+00    3.90367103E+00   
                   9.00000000E+01    1.26000000E+02   -2.86536402E-02   -2.01520342E-02    1.30632864E-01   -5.85992341E-01    1.54206404E-02    4.52957303E+00    4.54499367E+00   
                   9.00000000E+01    1.28000000E+02   -2.84732811E-02   -1.23073791E-02    4.34074837E-02   -6.34966920E-01    1.20913532E-02    5.09022455E+00    5.10231590E+00   
                   9.00000000E+01    1.30000000E+02   -2.57749462E-02   -5.15436931E-03   -5.37564634E-02   -6.61657737E-01    8.68229869E-03    5.53775723E+00    5.54643953E+00   
                   9.00000000E+01    1.32000000E+02   -2.10484832E-02    5.79001925E-04   -1.54107526E-01   -6.64798112E-01    5.57160060E-03    5.85222991E+00    5.85780151E+00   
                   9.00000000E+01    1.34000000E+02   -1.49522972E-02    4.41892205E-03   -2.51181892E-01   -6.45205803E-01    3.05486038E-03    6.02410283E+00    6.02715769E+00   
                   9.00000000E+01    1.36000000E+02   -8.20419365E-03    6.16177956E-03   -3.39401026E-01   -6.05437170E-01    1.32294127E-03    6.05381416E+00    6.05513710E+00   
                   9.00000000E+01    1.38000000E+02   -1.48560968E-03    5.85098428E-03   -4.14472842E-01   -5.49303161E-01    4.57931779E-04    5.95044917E+00    5.95090711E+00   
                   9.00000000E+01    1.40000000E+02    4.62991855E-03    3.72651314E-03   -4.73583821E-01   -4.81333934E-01    4.43882487E-04    5.72981250E+00    5.73025638E+00   
                   9.00000000E+01    1.42000000E+02    9.71955463E-03    1.60465475E-04   -5.15400853E-01   -4.06267324E-01    1.18746537E-03    5.41222496E+00    5.41341243E+00   
                   9.00000000E+01    1.44000000E+02    1.35261813E-02   -4.40927492E-03   -5.39922794E-01   -3.28616254E-01    2.54342443E-03    5.02033124E+00    5.02287466E+00   
                   9.00000000E+01    1.46000000E+02    1.59504454E-02   -9.53800035E-03   -5.48231846E-01   -2.52347006E-01    4.34030075E-03    4.57713924E+00    4.58147954E+00   
                   9.00000000E+01    1.48000000E+02    1.70266655E-02   -1.48200081E-02   -5.42195357E-01   -1.80678421E-01    6.40306818E-03    4.10443422E+00    4.11083728E+00   
                   9.00000000E+01    1.50000000E+02    1.68898394E-02   -1.99189542E-02   -5.24161924E-01   -1.15994664E-01    8.57065949E-03    3.62163410E+00    3.63020476E+00   
                   9.00000000E+01    1.52000000E+02    1.57401815E-02   -2.45831630E-02   -4.96684857E-01   -5.98524285E-02    1.07076186E-02    3.14508812E+00    3.15579574E+00   
                   9.00000000E+01    1.54000000E+02    1.38101003E-02   -2.86482033E-02   -4.62293964E-01   -1.30575771E-02    1.27101101E-02    2.68777337E+00    2.70048348E+00   
                   9.00000000E+01    1.56000000E+02    1.13367673E-02   -3.20300161E-02   -4.23325228E-01    2.42147701E-02    1.45071740E-02    2.25931536E+00    2.27382254E+00   
                   9.00000000E+01    1.58000000E+02    8.54177281E-03   -3.47120819E-02   -3.81808824E-01    5.22801490E-02    1.60584458E-02    1.86624668E+00    1.88230512E+00   
                   9.00000000E+01    1.60000000E+02    5.61803131E-03   -3.67297721E-02   -3.39409421E-01    7.18034455E-02    1.73496142E-02    1.51241912E+00    1.52976874E+00   
                   9.00000000E+01    1.62000000E+02    2.72317980E-03   -3.81543745E-02   -2.97409072E-01    8.36697275E-02    1.83867616E-02    1.19949500E+00    1.21788176E+00   
                   9.00000000E+01    1.64000000E+02   -2.18034598E-05   -3.90785133E-02   -2.56721537E-01    8.88753212E-02    1.91904901E-02    9.27458099E-01    9.46648589E-01   
                   9.00000000E+01    1.66000000E+02   -2.53021359E-03   -3.96039526E-02   -2.17927269E-01    8.84427864E-02    1.97904635E-02    6.95101516E-01    7.14891979E-01   
                   9.00000000E+01    1.68000000E+02   -4.74485917E-03   -3.98321649E-02   -1.81319716E-01    8.33600772E-02    2.02207361E-02    5.00465033E-01    5.20685769E-01   
                   9.00000000E+01    1.70000000E+02   -6.63211428E-03   -3.98575980E-02   -1.46955609E-01    7.45419336E-02    2.05160208E-02    3.41207762E-01    3.61723783E-01   
                   9.00000000E+01    1.72000000E+02   -8.17570065E-03   -3.97632919E-02   -1.14704029E-01    6.28102910E-02    2.07088946E-02    2.14911918E-01    2.35620813E-01   
                   9.00000000E+01    1.74000000E+02   -9.37084685E-03   -3.96183491E-02   -8.42910489E-02    4.88900230E-02    2.08278338E-02    1.19320394E-01    1.40148228E-01   
                   9.00000000E+01    1.76000000E+02   -1.02192362E-02   -3.94767268E-02   -5.53384258E-02    3.34163986E-02    2.08959234E-02    5.25148259E-02    7.34107493E-02   
                   9.00000000E+01    1.78000000E+02   -1.07249732E-02   -3.93768571E-02   -2.73961641E-02    1.69510113E-02    2.09300684E-02    1.30424676E-02    3.39725360E-02   
                   9.00000000E+01    1.80000000E+02   -1.08916768E-02   -3.93416798E-02    3.02791328E-05    3.45212115E-06    2.09405546E-02    1.16709291E-08    2.09405663E-02   
                   9.00000000E+01    1.82000000E+02   -1.07207339E-02   -3.93787861E-02    2.74566865E-02   -1.69435133E-02    2.09308351E-02    1.30809921E-02    3.40118272E-02   
                   9.00000000E+01    1.84000000E+02   -1.02107211E-02   -3.94804863E-02    5.53988188E-02   -3.34071164E-02    2.08974675E-02    5.25910722E-02    7.34885397E-02   
                   9.00000000E+01    1.86000000E+02   -9.35799099E-03   -3.96237395E-02    8.43511530E-02   -4.88777604E-02    2.08301759E-02    1.19432702E-01    1.40262878E-01   
                   9.00000000E+01    1.88000000E+02   -8.15842566E-03   -3.97700093E-02    1.14763574E-01   -6.27938472E-02    2.07120623E-02    2.15057665E-01    2.35769727E-01   
                   9.00000000E+01    1.90000000E+02   -6.61035183E-03   -3.98652303E-02    1.47014168E-01   -7.45201143E-02    2.05200455E-02    3.41383213E-01    3.61903258E-01   
                   9.00000000E+01    1.92000000E+02   -4.71858199E-03   -3.98401917E-02    1.81376659E-01   -8.33317167E-02    2.02256475E-02    5.00665160E-01    5.20890807E-01   
                   9.00000000E+01    1.94000000E+02   -2.49947368E-03   -3.96117503E-02    2.17981724E-01   -8.84067869E-02    1.97962828E-02    6.95319804E-01    7.15116087E-01   
                   9.00000000E+01    1.96000000E+02    1.32242194E-05   -3.90853703E-02    2.56772351E-01   -8.88307099E-02    1.91972215E-02    9.27686362E-01    9.46883584E-01   
                   9.00000000E+01    1.98000000E+02    2.76215113E-03   -3.81595201E-02    2.97454789E-01   -8.36157342E-02    1.83943826E-02    1.19972324E+00    1.21811763E+00   
                   9.00000000E+01    2.00000000E+02    5.66038912E-03   -3.67324225E-02    3.39448282E-01   -7.17396012E-02    1.73580643E-02    1.51263548E+00    1.52999354E+00   
                   9.00000000E+01    2.02000000E+02    8.58671190E-03   -3.47115057E-02    3.81838797E-01   -5.22064012E-02    1.60676159E-02    1.86643748E+00    1.88250510E+00   
                   9.00000000E+01    2.04000000E+02    1.13832169E-02   -3.20256194E-02    4.23344079E-01   -2.41316078E-02    1.45168966E-02    2.25946540E+00    2.27398230E+00   
                   9.00000000E+01    2.06000000E+02    1.38567341E-02   -2.86396311E-02    4.62299374E-01    1.31490002E-02    1.27201522E-02    2.68786635E+00    2.70058650E+00   
                   9.00000000E+01    2.08000000E+02    1.57854646E-02   -2.45704093E-02    4.96674610E-01    5.99501924E-02    1.07176804E-02    3.14510738E+00    3.15582506E+00   
                   9.00000000E+01    2.10000000E+02    1.69321204E-02   -1.99024676E-02    5.24134135E-01    1.16096025E-01    8.58037962E-03    3.62156366E+00    3.63014404E+00   
                   9.00000000E+01    2.12000000E+02    1.70643181E-02   -1.48007751E-02    5.42148770E-01    1.80779825E-01    6.41203957E-03    4.10426000E+00    4.11067204E+00   
                   9.00000000E+01    2.14000000E+02    1.59820563E-02   -9.51758536E-03    5.48166145E-01    2.52444204E-01    4.34809685E-03    4.57685060E+00    4.58119869E+00   
                   9.00000000E+01    2.16000000E+02    1.35507708E-02   -4.38979199E-03    5.39838926E-01    3.28704542E-01    2.54963695E-03    5.01992252E+00    5.02247216E+00   
                   9.00000000E+01    2.18000000E+02    9.73680757E-03    1.76467614E-04    5.15301289E-01    4.06341919E-01    1.19175139E-03    5.41169712E+00    5.41288887E+00   
                   9.00000000E+01    2.20000000E+02    4.64038912E-03    3.73626610E-03    4.73472713E-01    4.81390488E-01    4.46016880E-04    5.72917438E+00    5.72962040E+00   
                   9.00000000E+01    2.22000000E+02   -1.48036284E-03    5.85181238E-03    4.14356005E-01    5.49338376E-01    4.57858004E-04    5.94971845E+00    5.95017631E+00   
                   9.00000000E+01    2.24000000E+02   -8.20158861E-03    6.15148783E-03    3.39285683E-01    6.05449462E-01    1.32081173E-03    6.05301748E+00    6.05433829E+00   
                   9.00000000E+01    2.26000000E+02   -1.49488671E-02    4.39621528E-03    2.51076153E-01    6.45195919E-01    3.05105616E-03    6.02327517E+00    6.02632622E+00   
                   9.00000000E+01    2.28000000E+02   -2.10401947E-02    5.43868797E-04    1.54019590E-01    6.64769588E-01    5.56672103E-03    5.85141285E+00    5.85697958E+00   
                   9.00000000E+01    2.30000000E+02   -2.57576938E-02   -5.20038794E-03    5.36935940E-02    6.61617081E-01    8.67711439E-03    5.53699627E+00    5.54567339E+00   
                   9.00000000E+01    2.32000000E+02   -2.84435130E-02   -1.23611207E-02   -4.34401099E-02    6.34923389E-01    1.20867215E-02    5.08956549E+00    5.10165221E+00   
                   9.00000000E+01    2.34000000E+02   -2.86090340E-02   -2.02089107E-02   -1.30633273E-01    5.85957264E-01    1.54173898E-02    4.52905779E+00    4.54447518E+00   
                   9.00000000E+01    2.36000000E+02   -2.60405004E-02   -2.78233080E-02   -2.01594354E-01    5.18193760E-01    1.82494379E-02    3.88508268E+00    3.90333211E+00   
                   9.00000000E+01    2.38000000E+02   -2.08801287E-02   -3.42022530E-02   -2.51288354E-01    4.37149050E-01    2.01787498E-02    3.19493852E+00    3.21511727E+00   
                   9.00000000E+01    2.40000000E+02   -1.36612856E-02   -3.84079408E-02   -2.76674010E-01    3.49900478E-01    2.08828027E-02    2.50044200E+00    2.52132481E+00   
                   9.00000000E+01    2.42000000E+02   -5.28064241E-03   -3.97288293E-02   -2.77245920E-01    2.64317241E-01    2.01849221E-02    1.84384978E+00    1.86403471E+00   
                   9.00000000E+01    2.44000000E+02    3.10034168E-03   -3.78292001E-02   -2.55260375E-01    1.88086063E-01    1.81038737E-02    1.26335035E+00    1.28145422E+00   
                   9.00000000E+01    2.46000000E+02    1.02186804E-02   -3.28540050E-02   -2.15562386E-01    1.27669742E-01    1.48761584E-02    7.88749685E-01    8.03625843E-01   
                   9.00000000E+01    2.48000000E+02    1.49165948E-02   -2.54597904E-02   -1.64994787E-01    8.73711503E-02    1.09416109E-02    4.38025950E-01    4.48967561E-01   
                   9.00000000E+01    2.50000000E+02    1.63568183E-02   -1.67531052E-02   -1.11448727E-01    6.86793784E-02    6.88903565E-03    2.15358384E-01    2.22247420E-01   
                   9.00000000E+01    2.52000000E+02    1.42034910E-02   -8.13496176E-03   -6.26928413E-02    7.00416575E-02    3.36674130E-03    1.11039292E-01    1.14406034E-01   
                   9.00000000E+01    2.54000000E+02    8.72634350E-03   -1.07057146E-03   -2.51776746E-02    8.71359653E-02    9.71320055E-04    1.03378401E-01    1.04349721E-01   
                   9.00000000E+01    2.56000000E+02    7.96777606E-04    3.17688228E-03   -3.03581446E-03    1.13625713E-01    1.34804931E-04    1.62357745E-01    1.62492550E-01   
                   9.00000000E+01    2.58000000E+02   -8.23544842E-03    3.79645461E-03    2.52367083E-03    1.42278292E-01    1.03340401E-03    2.54462487E-01    2.55495891E-01   
                   9.00000000E+01    2.60000000E+02   -1.67706674E-02    6.09109179E-04   -6.70432434E-03    1.66246488E-01    3.53902047E-03    3.47872863E-01    3.51411883E-01   
                   9.00000000E+01    2.62000000E+02   -2.32533934E-02   -5.86741966E-03   -2.63942902E-02    1.80267231E-01    7.22750933E-03    4.17114700E-01    4.24342209E-01   
                   9.00000000E+01    2.64000000E+02   -2.64741627E-02   -1.44908517E-02   -5.06308692E-02    1.81539690E-01    1.14462807E-02    4.46359292E-01    4.57805573E-01   
                   9.00000000E+01    2.66000000E+02   -2.58150791E-02   -2.36966138E-02   -7.31294090E-02    1.70106201E-01    1.54308473E-02    4.30825830E-01    4.46256677E-01   
                   9.00000000E+01    2.68000000E+02   -2.13837619E-02   -3.17931965E-02   -8.84862479E-02    1.48663017E-01    1.84483446E-02    3.76117866E-01    3.94566210E-01   
                   9.00000000E+01    2.70000000E+02   -1.40029246E-02   -3.72908429E-02   -9.32016410E-02    1.21850182E-01    1.99389203E-02    2.95737126E-01    3.15676047E-01   
                   9.00000000E+01    2.72000000E+02   -5.05420390E-03   -3.91941632E-02   -8.62696490E-02    9.51819864E-02    1.96252454E-02    2.07371038E-01    2.26996283E-01   
                   9.00000000E+01    2.74000000E+02    3.79240910E-03   -3.71958308E-02   -6.92274016E-02    7.38542769E-02    1.75666827E-02    1.28766184E-01    1.46332867E-01   
                   9.00000000E+01    2.76000000E+02    1.09062946E-02   -3.17300633E-02   -4.56771684E-02    6.16845549E-02    1.41465185E-02    7.40333653E-02    8.81798839E-02   
                   9.00000000E+01    2.78000000E+02    1.50113201E-02   -2.38759476E-02   -2.04091422E-02    6.04014700E-02    9.99529878E-03    5.10806712E-02    6.10759700E-02   
                   9.00000000E+01    2.80000000E+02    1.54224944E-02   -1.51340275E-02    1.66646799E-03    6.94132025E-02    5.86713946E-03    6.05820931E-02    6.64492326E-02   
                   9.00000000E+01    2.82000000E+02    1.21574057E-02   -7.12671827E-03    1.65403511E-02    8.60721903E-02    2.49558856E-03    9.65349238E-02    9.90305123E-02   
                   9.00000000E+01    2.84000000E+02    5.90484061E-03   -1.28761873E-03    2.18669054E-02    1.06344715E-01    4.58988002E-04    1.48124335E-01    1.48583323E-01   
                   9.00000000E+01    2.86000000E+02   -2.13531484E-03    1.39626390E-03    1.73300086E-02    1.25713573E-01    8.17960436E-05    2.02371743E-01    2.02453539E-01   
                   9.00000000E+01    2.88000000E+02   -1.05002724E-02    5.40797278E-04    4.56997796E-03    1.40106975E-01    1.38918942E-03    2.46939853E-01    2.48329042E-01   
                   9.00000000E+01    2.90000000E+02   -1.77445788E-02   -3.60395728E-03   -1.32728210E-02    1.46661013E-01    4.11999250E-03    2.72509544E-01    2.76629537E-01   
                   9.00000000E+01    2.92000000E+02   -2.26946291E-02   -1.02427997E-02   -3.22674551E-02    1.44178073E-01    7.79066141E-03    2.74305089E-01    2.82095750E-01   
                   9.00000000E+01    2.94000000E+02   -2.46307387E-02   -1.82159979E-02   -4.84868888E-02    1.33222233E-01    1.17934869E-02    2.52573265E-01    2.64366752E-01   
                   9.00000000E+01    2.96000000E+02   -2.33699005E-02   -2.62273276E-02   -5.87223640E-02    1.15874160E-01    1.55072150E-02    2.12059226E-01    2.27566441E-01   
                   9.00000000E+01    2.98000000E+02   -1.92454024E-02   -3.30713939E-02   -6.09902612E-02    9.52336903E-02    1.83984560E-02    1.60714678E-01    1.79113134E-01   
                   9.00000000E+01    3.00000000E+02   -1.30001802E-02   -3.78186475E-02   -5.47628227E-02    7.47960105E-02    2.00968283E-02    1.07987974E-01    1.28084802E-01   
                   9.00000000E+01    3.02000000E+02   -5.62493698E-03   -3.99306559E-02   -4.09179497E-02    5.78333271E-02    2.04341400E-02    6.30702664E-02    8.35044064E-02   
                   9.00000000E+01    3.04000000E+02    1.82231727E-03   -3.92956128E-02   -2.14575946E-02    4.68922188E-02    1.94460316E-02    3.34178569E-02    5.28638885E-02   
                   9.00000000E+01    3.06000000E+02    8.38127435E-03   -3.61905189E-02    9.20713255E-04    4.34770536E-02    1.73415841E-02    2.37642873E-02    4.11058714E-02   
                   9.00000000E+01    3.08000000E+02    1.33136496E-02   -3.11886600E-02    2.33025629E-02    4.79436027E-02    1.44511475E-02    3.57085796E-02    5.01597271E-02   
                   9.00000000E+01    3.10000000E+02    1.61735214E-02   -2.50372946E-02    4.29976429E-02    5.95850403E-02    1.11645783E-02    6.78480256E-02    7.90126039E-02   
                   9.00000000E+01    3.12000000E+02    1.68224168E-02   -1.85307743E-02    5.78785031E-02    7.68623805E-02    7.87136472E-03    1.16336276E-01    1.24207640E-01   
                   9.00000000E+01    3.14000000E+02    1.53975685E-02   -1.23999179E-02    6.65829093E-02    9.77164290E-02    4.91147900E-03    1.75700283E-01    1.80611762E-01   
                   9.00000000E+01    3.16000000E+02    1.22477814E-02   -7.23126139E-03    6.85753825E-02    1.19897940E-01    2.54216785E-03    2.39742463E-01    2.42284631E-01   
                   9.00000000E+01    3.18000000E+02    7.85339333E-03   -3.42187057E-03    6.40872516E-02    1.41263482E-01    9.22182919E-04    3.02378886E-01    3.03301069E-01   
                   9.00000000E+01    3.20000000E+02    2.74551219E-03   -1.16839422E-03    5.39693291E-02    1.60001777E-01    1.11878175E-04    3.58308158E-01    3.58420036E-01   
                   9.00000000E+01    3.22000000E+02   -2.56386073E-03   -4.84015178E-04    3.94967432E-02    1.74774165E-01    8.55474847E-05    4.03455912E-01    4.03541460E-01   