##File Type: Far field
##File Format: 5
##Source: RWG_wire_XY_rad_theta450.14
##Date: 2020-09-16 10:50:29
** File exported by POSTFEKO version 2018-319328 (x64)

#Configuration Name: StandardConfiguration1
#Request Name: FarField1
#Frequency: 3.00000000E+08
#Coordinate System: Spherical
#No. of Theta Samples: 1
#No. of Phi Samples: 181
#Result Type: RCS
#Incident Wave Direction: (4.50000000E+01, 0.00000000E+00)
#No. of Header Lines: 1
#                 "Theta"           "Phi"             "Re(Etheta)"      "Im(Etheta)"      "Re(Ephi)"        "Im(Ephi)"        "RCS(Theta)"      "RCS(Phi)"        "RCS(Total)"      
                   9.00000000E+01    0.00000000E+00   -4.62769848E-02   -1.21499669E-01   -4.77695615E-05   -2.30522552E-04    2.12418521E-01    6.96460657E-07    2.12419217E-01   
                   9.00000000E+01    2.00000000E+00   -4.67418542E-02   -1.21250295E-01    1.05648418E-02   -7.53852042E-03    2.12201200E-01    2.11674447E-03    2.14317944E-01   
                   9.00000000E+01    4.00000000E+00   -4.81121810E-02   -1.20487450E-01    2.10111860E-02   -1.50301666E-02    2.11517244E-01    8.38649224E-03    2.19903736E-01   
                   9.00000000E+01    6.00000000E+00   -5.03502637E-02   -1.19153249E-01    3.11170959E-02   -2.28825647E-02    2.10268629E-01    1.87475852E-02    2.29016214E-01   
                   9.00000000E+01    8.00000000E+00   -5.33887339E-02   -1.17154941E-01    4.06913331E-02   -3.12541662E-02    2.08295598E-01    3.30823215E-02    2.41377920E-01   
                   9.00000000E+01    1.00000000E+01   -5.71242255E-02   -1.14370803E-01    4.95190664E-02   -4.02738317E-02    2.05382972E-01    5.11968950E-02    2.56579867E-01   
                   9.00000000E+01    1.20000000E+01   -6.14094988E-02   -1.10659234E-01    5.73580007E-02   -5.00282509E-02    2.01270439E-01    7.27940462E-02    2.74064485E-01   
                   9.00000000E+01    1.40000000E+01   -6.60451152E-02   -1.05871677E-01    6.39382817E-02   -6.05476704E-02    1.95668058E-01    9.74411992E-02    2.93109257E-01   
                   9.00000000E+01    1.60000000E+01   -7.07721859E-02   -9.98699254E-02    6.89674122E-02   -7.17903290E-02    1.88278215E-01    1.24537197E-01    3.12815412E-01   
                   9.00000000E+01    1.80000000E+01   -7.52681691E-02   -9.25480716E-02    7.21414300E-02   -8.36265910E-02    1.78825019E-01    1.53281983E-01    3.32107002E-01   
                   9.00000000E+01    2.00000000E+01   -7.91480969E-02   -8.38587652E-02    7.31634256E-02   -9.58244665E-02    1.67091433E-01    1.82654902E-01    3.49746334E-01   
                   9.00000000E+01    2.20000000E+01   -8.19738567E-02   -7.38425784E-02    7.17700440E-02   -1.08038967E-01    1.52963387E-01    2.11408546E-01    3.64371933E-01   
                   9.00000000E+01    2.40000000E+01   -8.32740983E-02   -6.26581345E-02    6.77658201E-02   -1.19808454E-01    1.36478542E-01    2.38085875E-01    3.74564417E-01   
                   9.00000000E+01    2.60000000E+01   -8.25768072E-02   -5.06093046E-02    6.10639986E-02   -1.30561655E-01    1.17875457E-01    2.61068331E-01    3.78943788E-01   
                   9.00000000E+01    2.80000000E+01   -7.94554217E-02   -3.81644223E-02    5.17308880E-02   -1.39639129E-01    9.76367685E-02    2.78661419E-01    3.76298188E-01   
                   9.00000000E+01    3.00000000E+01   -7.35874565E-02   -2.59613721E-02    4.00289056E-02   -1.46332414E-01    7.65179702E-02    2.89221161E-01    3.65739132E-01   
                   9.00000000E+01    3.20000000E+01   -6.48219404E-02   -1.47919626E-02    2.64515063E-02   -1.49942682E-01    5.55519800E-02    2.91319761E-01    3.46871741E-01   
                   9.00000000E+01    3.40000000E+01   -5.32487520E-02   -5.55962490E-03    1.17415455E-02   -1.49858253E-01    3.60194784E-02    2.83941668E-01    3.19961146E-01   
                   9.00000000E+01    3.60000000E+01   -3.92595661E-02    7.93386342E-04   -3.11619357E-03   -1.45646825E-01    1.93766271E-02    2.66692417E-01    2.86069045E-01   
                   9.00000000E+01    3.80000000E+01   -2.35872785E-02    3.38922460E-03   -1.69369719E-02   -1.37153907E-01    7.13577020E-03    2.39993241E-01    2.47129011E-01   
                   9.00000000E+01    4.00000000E+01   -7.30935063E-03    1.54241795E-03   -2.84186434E-02   -1.24594403E-01    7.01274604E-04    2.05226232E-01    2.05927507E-01   
                   9.00000000E+01    4.20000000E+01    8.19850586E-03   -5.10001786E-03   -3.62659183E-02   -1.08620263E-01    1.17150845E-03    1.64790085E-01    1.65961594E-01   
                   9.00000000E+01    4.40000000E+01    2.13676407E-02   -1.64260450E-02   -3.93502261E-02   -9.03450019E-02    9.12809884E-03    1.22027748E-01    1.31155847E-01   
                   9.00000000E+01    4.60000000E+01    3.06021614E-02   -3.17591981E-02   -3.68901079E-02   -7.13068244E-02    2.44433369E-02    8.09970855E-02    1.05440422E-01   
                   9.00000000E+01    4.80000000E+01    3.44950658E-02   -4.98204502E-02   -2.86277602E-02   -5.33572439E-02    4.61435473E-02    4.60751525E-02    9.22186998E-02   
                   9.00000000E+01    5.00000000E+01    3.20714549E-02   -6.87769302E-02   -1.49696904E-02   -3.84720484E-02    7.23677724E-02    2.14154849E-02    9.37832573E-02   
                   9.00000000E+01    5.20000000E+01    2.30223928E-02   -8.63939611E-02    2.94407917E-03   -2.84957040E-02    1.00454902E-01    1.03128779E-02    1.10767780E-01   
                   9.00000000E+01    5.40000000E+01    7.88352005E-03   -1.00290998E-01    2.32748121E-02   -2.48471543E-02    1.27177127E-01    1.45656545E-02    1.41742781E-01   
                   9.00000000E+01    5.60000000E+01   -1.18897367E-02   -1.08280823E-01    4.36451614E-02   -2.82313176E-02    1.49113842E-01    3.39531698E-02    1.83067012E-01   
                   9.00000000E+01    5.80000000E+01   -3.39905890E-02   -1.08748192E-01    6.14262117E-02   -3.84122956E-02    1.63130710E-01    6.59569076E-02    2.29087618E-01   
                   9.00000000E+01    6.00000000E+01   -5.54937151E-02   -1.01004106E-01    7.41269846E-02   -5.41069311E-02    1.66898767E-01    1.05838621E-01    2.72737388E-01   
                   9.00000000E+01    6.20000000E+01   -7.32435861E-02   -8.55409308E-02    7.98337302E-02   -7.30473353E-02    1.59365126E-01    1.47143877E-01    3.06509002E-01   
                   9.00000000E+01    6.40000000E+01   -8.43539105E-02   -6.41170509E-02    7.76223984E-02   -9.22369346E-02    1.41077345E-01    1.82625667E-01    3.23703013E-01   
                   9.00000000E+01    6.60000000E+01   -8.67398722E-02   -3.96206864E-02    6.78552380E-02   -1.08388397E-01    1.14273601E-01    2.05490041E-01    3.19763642E-01   
                   9.00000000E+01    6.80000000E+01   -7.95813315E-02   -1.57001388E-02    5.22778166E-02   -1.18489205E-01    8.26827311E-02    2.10771485E-01    2.93454216E-01   
                   9.00000000E+01    7.00000000E+01   -6.36105301E-02    3.80345048E-03    3.38591775E-02   -1.20400758E-01    5.10290878E-02    1.96573051E-01    2.47602139E-01   
                   9.00000000E+01    7.20000000E+01   -4.11374699E-02    1.55346045E-02    1.63638413E-02   -1.13370426E-01    2.42985273E-02    1.64878685E-01    1.89177212E-01   
                   9.00000000E+01    7.40000000E+01   -1.57700438E-02    1.72880212E-02    3.70274898E-03   -9.83328522E-02    6.88096705E-03    1.21680923E-01    1.28561890E-01   
                   9.00000000E+01    7.60000000E+01    8.15233216E-03    8.51795779E-03   -8.31166665E-04   -7.79027059E-02    1.74692814E-03    7.62718682E-02    7.80187963E-02   
                   9.00000000E+01    7.80000000E+01    2.63260163E-02   -9.43331180E-03    4.70679497E-03   -5.60154338E-02    9.82748621E-03    3.97082576E-02    4.95357438E-02   
                   9.00000000E+01    8.00000000E+01    3.53099779E-02   -3.34661895E-02    2.03819131E-02   -3.72465876E-02    2.97418394E-02    2.26537817E-02    5.23956211E-02   
                   9.00000000E+01    8.20000000E+01    3.32417437E-02   -5.92195034E-02    4.41905374E-02   -2.59186775E-02    5.79556377E-02    3.29814631E-02    9.09371008E-02   
                   9.00000000E+01    8.40000000E+01    2.02804977E-02   -8.18554104E-02    7.22950484E-02   -2.51678617E-02    8.93670867E-02    7.36388725E-02    1.63005959E-01   
                   9.00000000E+01    8.60000000E+01   -1.33660977E-03   -9.69859056E-02    9.96783558E-02   -3.61729443E-02    1.18225073E-01    1.41299495E-01    2.59524568E-01   
                   9.00000000E+01    8.80000000E+01   -2.76597124E-02   -1.01551012E-01    1.21116042E-01   -5.77342254E-02    1.39206079E-01    2.26224030E-01    3.65430109E-01   
                   9.00000000E+01    9.00000000E+01   -5.37549075E-02   -9.44586098E-02    1.32281373E-01   -8.63283463E-02    1.48434209E-01    3.13542823E-01    4.61977032E-01   
                   9.00000000E+01    9.20000000E+01   -7.46540279E-02   -7.68407919E-02    1.30751759E-01   -1.16668121E-01    1.44233424E-01    3.85881483E-01    5.30114907E-01   
                   9.00000000E+01    9.40000000E+01   -8.63291075E-02   -5.18626722E-02    1.16689460E-01   -1.42684506E-01    1.27453805E-01    4.26946191E-01    5.54399996E-01   
                   9.00000000E+01    9.60000000E+01   -8.64857088E-02   -2.41178240E-02    9.30271158E-02   -1.58747845E-01    1.01303134E-01    4.25433505E-01    5.26736639E-01   
                   9.00000000E+01    9.80000000E+01   -7.50077364E-02    1.26380480E-03    6.50888203E-02   -1.60882366E-01    7.07204892E-02    3.78495191E-01    4.49215680E-01   
                   9.00000000E+01    1.00000000E+02   -5.39635942E-02    1.96071222E-02    3.96978050E-02   -1.47718530E-01    4.14251506E-02    2.94011352E-01    3.35436502E-01   
                   9.00000000E+01    1.02000000E+02   -2.71804980E-02    2.75754294E-02    2.39340270E-02   -1.20975951E-01    1.88392989E-02    1.91109595E-01    2.09948894E-01   
                   9.00000000E+01    1.04000000E+02    5.13351917E-04    2.37685324E-02    2.37825909E-02   -8.53647981E-02    7.10259638E-03    9.86806973E-02    1.05783294E-01   
                   9.00000000E+01    1.06000000E+02    2.42122124E-02    8.92574460E-03    4.29388130E-02   -4.79137687E-02    8.36794801E-03    5.20181254E-02    6.03860734E-02   
                   9.00000000E+01    1.08000000E+02    3.98290886E-02   -1.42868977E-02    8.20028283E-02   -1.68499107E-02    2.24997315E-02    8.80699425E-02    1.10569674E-01   
                   9.00000000E+01    1.10000000E+02    4.47900426E-02   -4.18380213E-02    1.38214924E-01   -2.43469001E-04    4.72064250E-02    2.40060711E-01    2.87267136E-01   
                   9.00000000E+01    1.12000000E+02    3.84063094E-02   -6.91071996E-02    2.05772399E-01   -4.67104407E-03    7.85504932E-02    5.32362969E-01    6.10913462E-01   
                   9.00000000E+01    1.14000000E+02    2.18796170E-02   -9.17105370E-02    2.76655433E-01   -3.41365396E-02    1.11709257E-01    9.76451378E-01    1.08816064E+00   
                   9.00000000E+01    1.16000000E+02   -2.02646354E-03   -1.06216358E-01    3.41797729E-01   -8.94282190E-02    1.41824326E-01    1.56857326E+00    1.71039759E+00   
                   9.00000000E+01    1.18000000E+02   -2.95544563E-02   -1.10630715E-01    3.92385356E-01   -1.67998450E-01    1.64778054E-01    2.28946388E+00    2.45424193E+00   
                   9.00000000E+01    1.20000000E+02   -5.66308298E-02   -1.04591210E-01    4.21061225E-01   -2.64352323E-01    1.77768555E-01    3.10608896E+00    3.28385752E+00   
                   9.00000000E+01    1.22000000E+02   -7.95205619E-02   -8.92708660E-02    4.22849477E-01   -3.70843679E-01    1.79608713E-01    3.97507873E+00    4.15468744E+00   
                   9.00000000E+01    1.24000000E+02   -9.53484514E-02   -6.70473205E-02    3.95681025E-01   -4.78718154E-01    1.70735135E-01    4.84728324E+00    5.01801838E+00   
                   9.00000000E+01    1.26000000E+02   -1.02418240E-01   -4.10269204E-02    3.40481613E-01   -5.79220409E-01    1.52966712E-01    5.67276143E+00    5.82572814E+00   
                   9.00000000E+01    1.28000000E+02   -1.00307909E-01   -1.45245344E-02    2.60859575E-01   -6.64595786E-01    1.29089785E-01    6.40552241E+00    6.53461219E+00   
                   9.00000000E+01    1.30000000E+02   -8.97623523E-02    9.40982890E-03    1.62488541E-01   -7.28857105E-01    1.02363453E-01    7.00745067E+00    7.10981412E+00   
                   9.00000000E+01    1.32000000E+02   -7.24354002E-02    2.83512371E-02    5.23127765E-02   -7.68243186E-01    7.60350853E-02    7.45103115E+00    7.52706624E+00   
                   9.00000000E+01    1.34000000E+02   -5.05482804E-02    4.07122946E-02   -6.22914222E-02   -7.81353921E-01    5.29373389E-02    7.72070487E+00    7.77364221E+00   
                   9.00000000E+01    1.36000000E+02   -2.65316595E-02    4.58044556E-02   -1.74281790E-01   -7.68996700E-01    3.52106828E-02    7.81289045E+00    7.84810113E+00   
                   9.00000000E+01    1.38000000E+02   -2.70673061E-03    4.37696878E-02   -2.77559140E-01   -7.33813617E-01    2.41665376E-02    7.73487129E+00    7.75903783E+00   
                   9.00000000E+01    1.40000000E+02    1.89576056E-02    3.54194653E-02   -3.67373337E-01   -6.79775662E-01    2.02812341E-02    7.50285361E+00    7.52313484E+00   
                   9.00000000E+01    1.42000000E+02    3.69946004E-02    2.20236628E-02   -4.40517149E-01   -6.11630223E-01    2.32935546E-02    7.13954436E+00    7.16283791E+00   
                   9.00000000E+01    1.44000000E+02    5.04975959E-02    5.08917098E-03   -4.95328854E-01   -5.34375577E-01    3.23698002E-02    6.67158581E+00    6.70395561E+00   
                   9.00000000E+01    1.46000000E+02    5.91002040E-02   -1.38403530E-02   -5.31544277E-01   -4.52815865E-01    4.62994037E-02    6.12713016E+00    6.17342957E+00   
                   9.00000000E+01    1.48000000E+02    6.29002884E-02   -3.33432526E-02   -5.50048152E-01   -3.71227268E-01    6.36891155E-02    5.53376031E+00    5.59744943E+00   
                   9.00000000E+01    1.50000000E+02    6.23513982E-02   -5.22279473E-02   -5.52574685E-01   -2.93144965E-01    8.31322634E-02    4.91687843E+00    5.00001069E+00   
                   9.00000000E+01    1.52000000E+02    5.81432522E-02   -6.95904626E-02   -5.41400533E-01   -2.21263663E-01    1.03339175E-01    4.29860536E+00    4.40194454E+00   
                   9.00000000E+01    1.54000000E+02    5.10882798E-02   -8.48281727E-02   -5.19062890E-01   -1.57433163E-01    1.23223709E-01    3.69717055E+00    3.82039426E+00   
                   9.00000000E+01    1.56000000E+02    4.20255645E-02   -9.76201880E-02   -4.88123671E-01   -1.02724696E-01    1.41947827E-01    3.12672766E+00    3.26867549E+00   
                   9.00000000E+01    1.58000000E+02    3.17480352E-02   -1.07885911E-01   -4.50989849E-01   -5.75426916E-02    1.58930753E-01    2.59750657E+00    2.75643732E+00   
                   9.00000000E+01    1.60000000E+02    2.09541615E-02   -1.15732458E-01   -4.09791063E-01   -2.17589623E-02    1.73831594E-01    2.11620405E+00    2.29003564E+00   
                   9.00000000E+01    1.62000000E+02    1.02221239E-02   -1.21399660E-01   -3.66309351E-01    5.14940171E-03    1.86514711E-01    1.68652075E+00    1.87303546E+00   
                   9.00000000E+01    1.64000000E+02    2.46850278E-06   -1.25208853E-01   -3.21952074E-01    2.39719757E-02    1.97006220E-01    1.30976508E+00    1.50677130E+00   
                   9.00000000E+01    1.66000000E+02   -9.37555502E-03   -1.27519238E-01   -2.77757605E-01    3.56553280E-02    2.05448310E-01    9.85462193E-01    1.19091050E+00   
                   9.00000000E+01    1.68000000E+02   -1.76887239E-02   -1.28693438E-01   -2.34423524E-01    4.12159518E-02    2.12056145E-01    7.11924393E-01    9.23980538E-01   
                   9.00000000E+01    1.70000000E+02   -2.47998051E-02   -1.29072323E-01   -1.92348285E-01    4.16766871E-02    2.17080218E-01    4.86755965E-01    7.03836183E-01   
                   9.00000000E+01    1.72000000E+02   -3.06360586E-02   -1.28958084E-01   -1.51679213E-01    3.80252148E-02    2.20775494E-01    3.07279186E-01    5.28054680E-01   
                   9.00000000E+01    1.74000000E+02   -3.51686863E-02   -1.28603964E-01   -1.12361665E-01    3.11918230E-02    2.23377492E-01    1.70878433E-01    3.94255925E-01   
                   9.00000000E+01    1.76000000E+02   -3.83948171E-02   -1.28208862E-01   -7.41861509E-02    2.20429988E-02    2.25084737E-01    7.52660101E-02    3.00350747E-01   
                   9.00000000E+01    1.78000000E+02   -4.03229759E-02   -1.27915112E-01   -3.68318614E-02    1.13872540E-02    2.26046619E-01    1.86768383E-02    2.44723457E-01   
                   9.00000000E+01    1.80000000E+02   -4.09625241E-02   -1.27807983E-01    9.36197202E-05   -1.02447542E-05    2.26355631E-01    1.11458769E-07    2.26355742E-01   
                   9.00000000E+01    1.82000000E+02   -4.03172828E-02   -1.27915814E-01    3.70176709E-02   -1.14074006E-02    2.26043106E-01    1.88550442E-02    2.44898150E-01   
                   9.00000000E+01    1.84000000E+02   -3.83834057E-02   -1.28210147E-01    7.43676752E-02   -2.20621626E-02    2.25077866E-01    7.56154980E-02    3.00693364E-01   
                   9.00000000E+01    1.86000000E+02   -3.51515139E-02   -1.28605592E-01    1.12536066E-01   -3.12095011E-02    2.23367579E-01    1.71385178E-01    3.94752757E-01   
                   9.00000000E+01    1.88000000E+02   -3.06130808E-02   -1.28959693E-01    1.51843689E-01   -3.80411289E-02    2.20763024E-01    3.07921737E-01    5.28684761E-01   
                   9.00000000E+01    1.90000000E+02   -2.47709985E-02   -1.29073428E-01    1.92500101E-01   -4.16908666E-02    2.17065859E-01    4.87505027E-01    7.04570886E-01   
                   9.00000000E+01    1.92000000E+02   -1.76541176E-02   -1.28693433E-01    2.34560064E-01   -4.12288065E-02    2.12040761E-01    7.12742400E-01    9.24783161E-01   
                   9.00000000E+01    1.94000000E+02   -9.33526775E-03   -1.27517406E-01    2.77876434E-01   -3.56677077E-02    2.05432968E-01    9.86302987E-01    1.19173596E+00   
                   9.00000000E+01    1.96000000E+02    4.81858405E-05   -1.25204384E-01    3.22051024E-01   -2.39852103E-02    1.96992186E-01    1.31057384E+00    1.50756602E+00   
                   9.00000000E+01    1.98000000E+02    1.02728441E-02   -1.21391682E-01    3.66386624E-01   -5.16531458E-03    1.86503434E-01    1.68723429E+00    1.87373773E+00   
                   9.00000000E+01    2.00000000E+02    2.10092399E-02   -1.15720090E-01    4.09845347E-01    2.17380734E-02    1.73824665E-01    2.11675175E+00    2.29057641E+00   
                   9.00000000E+01    2.02000000E+02    3.18065788E-02   -1.07868326E-01    4.51020436E-01    5.75141131E-02    1.58929833E-01    2.59781195E+00    2.75674178E+00   
                   9.00000000E+01    2.04000000E+02    4.20864189E-02   -9.75967032E-02    4.88130571E-01    1.02685399E-01    1.41954537E-01    3.12671087E+00    3.26866541E+00   
                   9.00000000E+01    2.06000000E+02    5.11500442E-02   -8.47983459E-02    5.19046923E-01    1.57379949E-01    1.23239484E-01    3.69675174E+00    3.81999122E+00   
                   9.00000000E+01    2.08000000E+02    5.82043316E-02   -6.95541999E-02    5.41363386E-01    2.21193345E-01    1.03365070E-01    4.29770895E+00    4.40107402E+00   
                   9.00000000E+01    2.10000000E+02    6.24100990E-02   -5.21856016E-02    5.52518914E-01    2.93054580E-01    8.31687328E-02    4.91543812E+00    4.99860686E+00   
                   9.00000000E+01    2.12000000E+02    6.29549616E-02   -3.32956974E-02    5.49977120E-01    3.71114299E-01    6.37357603E-02    5.53172459E+00    5.59546035E+00   
                   9.00000000E+01    2.14000000E+02    5.91494296E-02   -1.37890101E-02    5.31462026E-01    4.52678443E-01    4.63547251E-02    6.12446774E+00    6.17082247E+00   
                   9.00000000E+01    2.16000000E+02    5.05403962E-02    5.14237159E-03    4.95239899E-01    5.34212645E-01    3.24309831E-02    6.66829063E+00    6.70072161E+00   
                   9.00000000E+01    2.18000000E+02    3.70306553E-02    2.20764080E-02    4.40426231E-01    6.11441632E-01    2.33563241E-02    7.13563932E+00    7.15899564E+00   
                   9.00000000E+01    2.20000000E+02    1.89874367E-02    3.54692780E-02    3.67285143E-01    6.79562167E-01    2.03398324E-02    7.49839249E+00    7.51873232E+00   
                   9.00000000E+01    2.22000000E+02   -2.68165038E-03    4.38142341E-02    2.77478050E-01    7.33576767E-01    2.42138676E-02    7.72993826E+00    7.75415212E+00   
                   9.00000000E+01    2.24000000E+02   -2.65089107E-02    4.58419134E-02    1.74211677E-01    7.68738642E-01    3.52386589E-02    7.80759675E+00    7.84283541E+00   
                   9.00000000E+01    2.26000000E+02   -5.05246516E-02    4.07417392E-02    6.22355692E-02    7.81077124E-01    5.29374666E-02    7.71518281E+00    7.76812027E+00   
                   9.00000000E+01    2.28000000E+02   -7.24072046E-02    2.83729805E-02   -5.23516219E-02    7.67950160E-01    7.59992644E-02    7.44542557E+00    7.52142483E+00   
                   9.00000000E+01    2.30000000E+02   -8.97258926E-02    9.42563936E-03   -1.62507965E-01    7.28550174E-01    1.02284960E-01    7.00190876E+00    7.10419372E+00   
                   9.00000000E+01    2.32000000E+02   -1.00260042E-01   -1.45113987E-02   -2.60857175E-01    6.64276991E-01    1.28964348E-01    6.40018307E+00    6.52914742E+00   
                   9.00000000E+01    2.34000000E+02   -1.02356962E-01   -4.10119111E-02   -3.40454624E-01    5.78891611E-01    1.52793551E-01    5.66774539E+00    5.82053894E+00   
                   9.00000000E+01    2.36000000E+02   -9.52733930E-02   -6.70250407E-02   -3.95625996E-01    4.78381360E-01    1.70517802E-01    4.84268533E+00    5.01320313E+00   
                   9.00000000E+01    2.38000000E+02   -7.94333012E-02   -8.92357134E-02   -4.22762116E-01    3.70501584E-01    1.79355559E-01    3.97096345E+00    4.15031901E+00   
                   9.00000000E+01    2.40000000E+02   -5.65349177E-02   -1.04538131E-01   -4.20936528E-01    2.64008976E-01    1.77492667E-01    3.10248988E+00    3.27998254E+00   
                   9.00000000E+01    2.42000000E+02   -2.94551276E-02   -1.10555935E-01   -3.92218093E-01    1.67659908E-01    1.64496546E-01    2.28638676E+00    2.45088331E+00   
                   9.00000000E+01    2.44000000E+02   -1.93005352E-03   -1.06117953E-01   -3.41583303E-01    8.91030116E-02    1.41556961E-01    1.56600225E+00    1.70755921E+00   
                   9.00000000E+01    2.46000000E+02    2.19664554E-02   -9.15887054E-02   -2.76391010E-01    3.38357501E-02    1.11476476E-01    9.74356773E-01    1.08583325E+00   
                   9.00000000E+01    2.48000000E+02    3.84774345E-02   -6.89641749E-02   -2.05458153E-01    4.40787256E-03    7.83710548E-02    5.30709022E-01    6.09080077E-01   
                   9.00000000E+01    2.50000000E+02    4.48405212E-02   -4.16776282E-02   -1.37855127E-01    3.22095854E-05    4.70949499E-02    2.38811772E-01    2.85906722E-01   
                   9.00000000E+01    2.52000000E+02    3.98556028E-02   -1.41138537E-02   -8.16065257E-02    1.67044121E-02    2.24645230E-02    8.71938036E-02    1.09658327E-01   
                   9.00000000E+01    2.54000000E+02    2.42130800E-02    9.10661029E-03   -4.25198346E-02    4.78455758E-02    8.40946039E-03    5.14861227E-02    5.98955831E-02   
                   9.00000000E+01    2.56000000E+02    4.88165794E-04    2.39529363E-02   -2.33587633E-02    8.53812829E-02    7.21286379E-03    9.84649945E-02    1.05677858E-01   
                   9.00000000E+01    2.58000000E+02   -2.72315011E-02    2.77599835E-02   -2.35255995E-02    1.21078799E-01    1.90025055E-02    1.91178847E-01    2.10181353E-01   
                   9.00000000E+01    2.60000000E+02   -5.40402352E-02    1.97892703E-02   -3.93252767E-02    1.47902924E-01    4.16193450E-02    2.94326419E-01    3.35945764E-01   
                   9.00000000E+01    2.62000000E+02   -7.51104306E-02    1.44135735E-03   -6.47705070E-02    1.61137106E-01    7.09202515E-02    3.79006584E-01    4.49926835E-01   
                   9.00000000E+01    2.64000000E+02   -8.66156335E-02   -2.39474181E-02   -9.27768885E-02    1.59056474E-01    1.01482827E-01    4.26081809E-01    5.27564636E-01   
                   9.00000000E+01    2.66000000E+02   -8.64878905E-02   -5.17030815E-02   -1.16515086E-01    1.43027290E-01    1.27590933E-01    4.27665898E-01    5.55256831E-01   
                   9.00000000E+01    2.68000000E+02   -7.48429869E-02   -7.66973135E-02   -1.30654178E-01    1.17024566E-01    1.44311579E-01    3.86607701E-01    5.30919280E-01   
                   9.00000000E+01    2.70000000E+02   -5.39740137E-02   -9.43382083E-02   -1.32255068E-01    8.66797984E-02    1.48445175E-01    3.14219464E-01    4.62664639E-01   
                   9.00000000E+01    2.72000000E+02   -2.79065572E-02   -1.01461770E-01   -1.21150428E-01    5.80660592E-02    1.39150773E-01    2.26811599E-01    3.65962372E-01   
                   9.00000000E+01    2.74000000E+02   -1.60568837E-03   -9.69359280E-02   -9.97599259E-02    3.64759556E-02    1.18113232E-01    1.41780556E-01    2.59893788E-01   
                   9.00000000E+01    2.76000000E+02    1.99979232E-02   -8.18513912E-02   -7.24098256E-02    2.54386162E-02    8.92157923E-02    7.40197687E-02    1.63235561E-01   
                   9.00000000E+01    2.78000000E+02    3.29570709E-02   -5.92652654E-02   -4.43263697E-02    2.61588056E-02    5.77869605E-02    3.32897001E-02    9.10766606E-02   
                   9.00000000E+01    2.80000000E+02    3.50360201E-02   -3.35615563E-02   -2.05301654E-02    3.74612257E-02    2.95799894E-02    2.29315042E-02    5.25114936E-02   
                   9.00000000E+01    2.82000000E+02    2.60753002E-02   -9.57360809E-03   -4.86315510E-03    5.62111789E-02    9.69590057E-03    4.00031171E-02    4.96990177E-02   
                   9.00000000E+01    2.84000000E+02    7.93527203E-03    8.34161404E-03    6.66859027E-04    7.80855292E-02    1.66568583E-03    7.66271466E-02    7.82928324E-02   
                   9.00000000E+01    2.86000000E+02   -1.59467191E-02    1.70876472E-02   -3.87796569E-03    9.85063935E-02    6.86482656E-03    1.22126878E-01    1.28991705E-01   
                   9.00000000E+01    2.88000000E+02   -4.12717087E-02    1.53236914E-02   -1.65544444E-02    1.13534983E-01    2.43557557E-02    1.65426742E-01    1.89782498E-01   
                   9.00000000E+01    2.90000000E+02   -6.37051666E-02    3.59502843E-03   -3.40693550E-02    1.20553112E-01    5.11611189E-02    1.97213778E-01    2.48374897E-01   
                   9.00000000E+01    2.92000000E+02   -7.96434769E-02   -1.58953377E-02   -5.25098482E-02    1.18623261E-01    8.28845784E-02    2.11476462E-01    2.94361041E-01   
                   9.00000000E+01    2.94000000E+02   -8.67796238E-02   -3.97956314E-02   -6.81083736E-02    1.08496419E-01    1.14534870E-01    2.06216950E-01    3.20751820E-01   
                   9.00000000E+01    2.96000000E+02   -8.43826411E-02   -6.42691483E-02   -7.78924179E-02    9.23111110E-02    1.41383652E-01    1.83325377E-01    3.24709029E-01   
                   9.00000000E+01    2.98000000E+02   -7.32721432E-02   -8.56720026E-02   -8.01132202E-02    7.30813253E-02    1.59699708E-01    1.47768055E-01    3.07467763E-01   
                   9.00000000E+01    3.00000000E+02   -5.55308461E-02   -1.01119676E-01   -7.44062257E-02    5.40971115E-02    1.67244114E-01    1.06346479E-01    2.73590592E-01   
                   9.00000000E+01    3.02000000E+02   -3.40418378E-02   -1.08856261E-01   -6.16944714E-02    3.83584996E-02    1.63470038E-01    6.63200551E-02    2.29790093E-01   
                   9.00000000E+01    3.04000000E+02   -1.19569438E-02   -1.08390394E-01   -4.38921339E-02    2.81369767E-02    1.49432319E-01    3.41580201E-02    1.83590339E-01   
                   9.00000000E+01    3.06000000E+02    7.80210581E-03   -1.00410615E-01   -2.34919520E-02    2.47188653E-02    1.27462765E-01    1.46133584E-02    1.42076123E-01   
                   9.00000000E+01    3.08000000E+02    2.29314871E-02   -8.65304935E-02   -3.12562352E-03    2.83423414E-02    1.00699096E-01    1.02171862E-02    1.10916282E-01   
                   9.00000000E+01    3.10000000E+02    3.19777677E-02   -6.89347522E-02    1.48261417E-02    3.83036005E-02    7.25654834E-02    2.11992196E-02    9.37647030E-02   
                   9.00000000E+01    3.12000000E+02    3.44061844E-02   -5.00010818E-02    2.85211468E-02    5.31835736E-02    4.62931736E-02    4.57660723E-02    9.20592459E-02   
                   9.00000000E+01    3.14000000E+02    3.05254760E-02   -3.19613820E-02    3.68162568E-02    7.11365391E-02    2.45463269E-02    8.06238729E-02    1.05170200E-01   
                   9.00000000E+01    3.16000000E+02    2.13094581E-02   -1.66461741E-02    3.93025444E-02    9.01845766E-02    9.18838087E-03    1.21616679E-01    1.30805060E-01   
                   9.00000000E+01    3.18000000E+02    8.16343883E-03   -5.33278932E-03    3.62362979E-02    1.08473500E-01    1.19481524E-03    1.64362719E-01    1.65557534E-01   
                   9.00000000E+01    3.20000000E+02   -7.31868768E-03    1.30325302E-03    2.83984307E-02    1.24462259E-01    6.94438473E-04    2.04798223E-01    2.05492661E-01   
                   9.00000000E+01    3.22000000E+02   -2.35702908E-02    3.15013365E-03    1.69178764E-02    1.37034645E-01    7.10605574E-03    2.39574191E-01    2.46680247E-01   