##File Type: Far field
##File Format: 5
##Source: RWG_wire_XY_rad_theta450.01
##Date: 2020-09-16 10:50:29
** File exported by POSTFEKO version 2018-319328 (x64)

#Configuration Name: StandardConfiguration1
#Request Name: FarField1
#Frequency: 3.00000000E+08
#Coordinate System: Spherical
#No. of Theta Samples: 1
#No. of Phi Samples: 181
#Result Type: RCS
#Incident Wave Direction: (4.50000000E+01, 0.00000000E+00)
#No. of Header Lines: 1
#                 "Theta"           "Phi"             "Re(Etheta)"      "Im(Etheta)"      "Re(Ephi)"        "Im(Ephi)"        "RCS(Theta)"      "RCS(Phi)"        "RCS(Total)"      
                   9.00000000E+01    0.00000000E+00   -1.55980250E-04   -5.71351880E-04    2.46032027E-07   -6.92329451E-08    4.40794112E-06    8.20897645E-13    4.40794194E-06   
                   9.00000000E+01    2.00000000E+00   -1.58005672E-04   -5.70177278E-04    1.34572026E-02   -1.15793121E-02    4.39908323E-06    3.96062810E-03    3.96502718E-03   
                   9.00000000E+01    4.00000000E+00   -1.64025276E-04   -5.66563114E-04    2.66647111E-02   -2.34444249E-02    4.37181587E-06    1.58417685E-02    1.58461403E-02   
                   9.00000000E+01    6.00000000E+00   -1.73860943E-04   -5.60241747E-04    3.93596879E-02   -3.58677702E-02    4.32406856E-06    3.56342306E-02    3.56385547E-02   
                   9.00000000E+01    8.00000000E+00   -1.87194219E-04   -5.50783898E-04    5.12528913E-02   -4.90937722E-02    4.25251735E-06    6.32975293E-02    6.33017818E-02   
                   9.00000000E+01    1.00000000E+01   -2.03536100E-04   -5.37626007E-04    6.20188878E-02   -6.33225764E-02    4.15279175E-06    9.87225527E-02    9.87267055E-02   
                   9.00000000E+01    1.20000000E+01   -2.22189269E-04   -5.20112631E-04    7.12899170E-02   -7.86912765E-02    4.01979623E-06    1.41680416E-01    1.41684436E-01   
                   9.00000000E+01    1.40000000E+01   -2.42207891E-04   -4.97557128E-04    7.86553008E-02   -9.52526106E-02    3.84817150E-06    1.91759249E-01    1.91763097E-01   
                   9.00000000E+01    1.60000000E+01   -2.62362163E-04   -4.69323530E-04    8.36681983E-02   -1.12951688E-01    3.63291865E-06    2.48292022E-01    2.48295655E-01   
                   9.00000000E+01    1.80000000E+01   -2.81117053E-04   -4.34931109E-04    8.58615263E-02   -1.31602151E-01    3.37019840E-06    3.10280375E-01    3.10283746E-01   
                   9.00000000E+01    2.00000000E+01   -2.96636782E-04   -3.94180429E-04    8.47746317E-02   -1.50864165E-01    3.05829761E-06    3.76321762E-01    3.76324821E-01   
                   9.00000000E+01    2.20000000E+01   -3.06827964E-04   -3.47295466E-04    7.99916896E-02   -1.70227746E-01    2.69872285E-06    4.44549887E-01    4.44552585E-01   
                   9.00000000E+01    2.40000000E+01   -3.09434316E-04   -2.95070758E-04    7.11916889E-02   -1.89005915E-01    2.29733798E-06    5.12601010E-01    5.12603307E-01   
                   9.00000000E+01    2.60000000E+01   -3.02193534E-04   -2.39005820E-04    5.82081894E-02   -2.06342939E-01    1.86541130E-06    5.77620786E-01    5.77622651E-01   
                   9.00000000E+01    2.80000000E+01   -2.83061489E-04   -1.81402130E-04    4.10947944E-02   -2.21243116E-01    1.42038365E-06    6.36327057E-01    6.36328478E-01   
                   9.00000000E+01    3.00000000E+01   -2.50499627E-04   -1.25392140E-04    2.01896270E-02   -2.32624815E-01    9.86123969E-07    6.85142721E-01    6.85143707E-01   
                   9.00000000E+01    3.20000000E+01   -2.03808366E-04   -7.48670265E-05   -3.83066317E-03   -2.39402607E-01    5.92415428E-07    7.20408442E-01    7.20409034E-01   
                   9.00000000E+01    3.40000000E+01   -1.43472981E-04   -3.42723662E-05   -2.99191778E-02   -2.40596945E-01    2.73432806E-07    7.38676990E-01    7.38677263E-01   
                   9.00000000E+01    3.60000000E+01   -7.14711523E-05   -8.25099095E-06   -5.66623873E-02   -2.35466056E-01    6.50461036E-08    7.37079083E-01    7.37079148E-01   
                   9.00000000E+01    3.80000000E+01    8.52378238E-06   -1.13133080E-06   -8.23314597E-02   -2.23648779E-01    9.29091790E-10    7.13735240E-01    7.13735240E-01   
                   9.00000000E+01    4.00000000E+01    9.11181263E-05   -1.62878451E-05   -1.04990330E-01   -2.05300721E-01    1.07666236E-07    6.68170955E-01    6.68171063E-01   
                   9.00000000E+01    4.20000000E+01    1.69422167E-04   -5.54353882E-05   -1.22663011E-01   -1.81200562E-01    3.99320968E-07    6.01676039E-01    6.01676438E-01   
                   9.00000000E+01    4.40000000E+01    2.35573582E-04   -1.17956560E-04   -1.33553012E-01   -1.52800156E-01    8.72214981E-07    5.17537109E-01    5.17537981E-01   
                   9.00000000E+01    4.60000000E+01    2.81570053E-04   -2.00392257E-04   -1.36295719E-01   -1.22192939E-01    1.50091161E-06    4.21069389E-01    4.21070890E-01   
                   9.00000000E+01    4.80000000E+01    3.00363173E-04   -2.96240638E-04   -1.30212080E-01   -9.19816265E-02    2.23651931E-06    3.19384429E-01    3.19386665E-01   
                   9.00000000E+01    5.00000000E+01    2.87096033E-04   -3.96198248E-04   -1.15521378E-01   -6.50388938E-02    3.00835373E-06    2.20857061E-01    2.20860070E-01   
                   9.00000000E+01    5.20000000E+01    2.40297873E-04   -4.88931196E-04   -9.34656867E-02   -4.41731788E-02    3.72965836E-06    1.34298114E-01    1.34301843E-01   
                   9.00000000E+01    5.40000000E+01    1.62798331E-04   -5.62382417E-04   -6.63016902E-02   -3.17337028E-02    4.30746634E-06    6.78953717E-02    6.78996792E-02   
                   9.00000000E+01    5.60000000E+01    6.21102676E-05   -6.05510198E-04   -3.71292899E-02   -2.92102844E-02    4.65584389E-06    2.80459386E-02    2.80505945E-02   
                   9.00000000E+01    5.80000000E+01   -4.99296353E-05   -6.10231107E-04   -9.55086843E-03   -3.68992904E-02    4.71081784E-06    1.82561307E-02    1.82608415E-02   
                   9.00000000E+01    6.00000000E+01   -1.58371604E-04   -5.73234380E-04    1.28121404E-02   -5.37115213E-02    4.44446415E-06    3.83158500E-02    3.83202944E-02   
                   9.00000000E+01    6.20000000E+01   -2.47167462E-04   -4.97276514E-04    2.68831493E-02   -7.71865436E-02    3.87516315E-06    8.39492145E-02    8.39530896E-02   
                   9.00000000E+01    6.40000000E+01   -3.01754206E-04   -3.91583535E-04    3.06820524E-02   -1.03749278E-01    3.07113635E-06    1.47093152E-01    1.47096223E-01   
                   9.00000000E+01    6.60000000E+01   -3.11792092E-04   -2.71100725E-04    2.37552917E-02   -1.29200992E-01    2.14520402E-06    2.16860499E-01    2.16862644E-01   
                   9.00000000E+01    6.80000000E+01   -2.73520332E-04   -1.54531055E-04    7.37995355E-03   -1.49385317E-01    1.24021557E-06    2.81115197E-01    2.81116437E-01   
                   9.00000000E+01    7.00000000E+01   -1.91173335E-04   -6.13639266E-05   -1.55323514E-02   -1.60921570E-01    5.06585277E-07    3.28447301E-01    3.28447808E-01   
                   9.00000000E+01    7.20000000E+01   -7.70112111E-05   -8.36066694E-06   -4.08527854E-02   -1.61865237E-01    7.54061077E-08    3.50216016E-01    3.50216091E-01   
                   9.00000000E+01    7.40000000E+01    5.02414699E-05   -6.16476603E-06   -6.39271028E-02   -1.52150398E-01    3.21976759E-08    3.42262925E-01    3.42262957E-01   
                   9.00000000E+01    7.60000000E+01    1.68422495E-04   -5.67781190E-05   -8.04278530E-02   -1.33697425E-01    3.96970286E-07    3.05911215E-01    3.05911612E-01   
                   9.00000000E+01    7.80000000E+01    2.55944697E-04   -1.52548009E-04   -8.72026427E-02   -1.10129816E-01    1.11562458E-06    2.47970648E-01    2.47971764E-01   
                   9.00000000E+01    8.00000000E+01    2.96028897E-04   -2.77041332E-04   -8.29366567E-02   -8.61261324E-02    2.06572292E-06    1.79651344E-01    1.79653410E-01   
                   9.00000000E+01    8.20000000E+01    2.80257396E-04   -4.07788248E-04   -6.84718252E-02   -6.65185968E-02    3.07669317E-06    1.14518775E-01    1.14521852E-01   
                   9.00000000E+01    8.40000000E+01    2.10620174E-04   -5.20444006E-04   -4.66898089E-02   -5.53175989E-02    3.96120680E-06    6.58474679E-02    6.58514292E-02   
                   9.00000000E+01    8.60000000E+01    9.95075103E-05   -5.93553678E-04   -2.19591623E-02   -5.48719524E-02    4.55163636E-06    4.38960411E-02    4.39005927E-02   
                   9.00000000E+01    8.80000000E+01   -3.24594634E-05   -6.12910965E-04    7.52513776E-04   -6.53569278E-02    4.73392104E-06    5.36847201E-02    5.36894541E-02   
                   9.00000000E+01    9.00000000E+01   -1.60376112E-04   -5.74542352E-04    1.69179378E-02   -8.47166511E-02    4.47135860E-06    9.37844273E-02    9.37888987E-02   
                   9.00000000E+01    9.20000000E+01   -2.59971445E-04   -4.85625641E-04    2.34147931E-02   -1.09087934E-01    3.81285570E-06    1.56431583E-01    1.56435396E-01   
                   9.00000000E+01    9.40000000E+01   -3.12443640E-04   -3.63106955E-04    1.91994348E-02   -1.33622502E-01    2.88357602E-06    2.29004402E-01    2.29007286E-01   
                   9.00000000E+01    9.60000000E+01   -3.08167438E-04   -2.30301852E-04    5.53563898E-03   -1.53531263E-01    1.85989967E-06    2.96597663E-01    2.96599523E-01   
                   9.00000000E+01    9.80000000E+01   -2.48482447E-04   -1.12223028E-04   -1.42756442E-02   -1.65121492E-01    9.34153007E-07    3.45184391E-01    3.45185325E-01   
                   9.00000000E+01    1.00000000E+02   -1.45213337E-04   -3.06541798E-05   -3.56063186E-02   -1.66599097E-01    2.76794318E-07    3.64714641E-01    3.64714918E-01   
                   9.00000000E+01    1.02000000E+02   -1.80880481E-05   -2.03545287E-08   -5.34932310E-02   -1.58463015E-01    4.11143871E-09    3.51507184E-01    3.51507188E-01   
                   9.00000000E+01    1.04000000E+02    1.09321266E-04   -2.48891847E-05   -6.36946766E-02   -1.43412835E-01    1.57966954E-07    3.09437490E-01    3.09437648E-01   
                   9.00000000E+01    1.06000000E+02    2.14217780E-04   -9.95384470E-05   -6.35857007E-02   -1.25800135E-01    7.01167787E-07    2.49678896E-01    2.49679597E-01   
                   9.00000000E+01    1.08000000E+02    2.78779116E-04   -2.09550929E-04   -5.27102345E-02   -1.10751852E-01    1.52843996E-06    1.89052773E-01    1.89054301E-01   
                   9.00000000E+01    1.10000000E+02    2.93118044E-04   -3.34967017E-04   -3.28902226E-02   -1.03157786E-01    2.48966305E-06    1.47319278E-01    1.47321767E-01   
                   9.00000000E+01    1.12000000E+02    2.56518612E-04   -4.54237260E-04   -7.89071274E-03   -1.06731553E-01    3.41972773E-06    1.43933798E-01    1.43937218E-01   
                   9.00000000E+01    1.14000000E+02    1.76867924E-04   -5.48125047E-04    1.72686636E-02   -1.23324721E-01    4.16855831E-06    1.94869141E-01    1.94873310E-01   
                   9.00000000E+01    1.16000000E+02    6.85821523E-05   -6.02812853E-04    3.72013074E-02   -1.52608504E-01    4.62551574E-06    3.10053742E-01    3.10058368E-01   
                   9.00000000E+01    1.18000000E+02   -5.04072295E-05   -6.11716323E-04    4.70605254E-02   -1.92154578E-01    4.73422617E-06    4.91823552E-01    4.91828287E-01   
                   9.00000000E+01    1.20000000E+02   -1.61929538E-04   -5.75832107E-04    4.33002616E-02   -2.37866495E-01    4.49629504E-06    7.34571995E-01    7.34576491E-01   
                   9.00000000E+01    1.22000000E+02   -2.50481825E-04   -5.02755716E-04    2.41702505E-02   -2.84652654E-01    3.96474591E-06    1.02555827E+00    1.02556224E+00   
                   9.00000000E+01    1.24000000E+02   -3.05303038E-04   -4.04738839E-04   -1.01104928E-02   -3.27200809E-01    3.22985222E-06    1.34664484E+00    1.34664807E+00   
                   9.00000000E+01    1.26000000E+02   -3.21384252E-04   -2.96274739E-04   -5.74929476E-02   -3.60714652E-01    2.40101319E-06    1.67661144E+00    1.67661384E+00   
                   9.00000000E+01    1.28000000E+02   -2.99419841E-04   -1.91701403E-04   -1.14488063E-01   -3.81499696E-01    1.58841022E-06    1.99364885E+00    1.99365044E+00   
                   9.00000000E+01    1.30000000E+02   -2.44894118E-04   -1.03218062E-04   -1.76712500E-01   -3.87328712E-01    8.87526282E-07    2.27766522E+00    2.27766610E+00   
                   9.00000000E+01    1.32000000E+02   -1.66612275E-04   -3.95604687E-05   -2.39485247E-01   -3.77564858E-01    3.68504808E-07    2.51212311E+00    2.51212348E+00   
                   9.00000000E+01    1.34000000E+02   -7.50167286E-05   -5.41633198E-06   -2.98380534E-01   -3.53063372E-01    7.10860261E-08    2.68524098E+00    2.68524105E+00   
                   9.00000000E+01    1.36000000E+02    1.94071930E-05   -1.52000928E-06   -3.49666940E-01   -3.15903312E-01    4.76202071E-09    2.79051177E+00    2.79051177E+00   
                   9.00000000E+01    1.38000000E+02    1.07415308E-04   -2.52673297E-05   -3.90593603E-01   -2.69016482E-01    1.53014241E-07    2.82659433E+00    2.82659448E+00   
                   9.00000000E+01    1.40000000E+02    1.81859041E-04   -7.16448584E-05   -4.19515106E-01   -2.15781933E-01    4.80106941E-07    2.79670569E+00    2.79670617E+00   
                   9.00000000E+01    1.42000000E+02    2.38087460E-04   -1.34268394E-04   -4.35871484E-01   -1.59644567E-01    9.38879292E-07    2.70768012E+00    2.70768106E+00   
                   9.00000000E+01    1.44000000E+02    2.73949288E-04   -2.06360294E-04   -4.40056276E-01   -1.03799754E-01    1.47821715E-06    2.56886668E+00    2.56886816E+00   
                   9.00000000E+01    1.46000000E+02    2.89493611E-04   -2.81548636E-04   -4.33212942E-01   -5.09671120E-02    2.04927578E-06    2.39101715E+00    2.39101920E+00   
                   9.00000000E+01    1.48000000E+02    2.86485646E-04   -3.54428618E-04   -4.16999488E-01   -3.25916864E-03    2.60995564E-06    2.18528174E+00    2.18528435E+00   
                   9.00000000E+01    1.50000000E+02    2.67848278E-04   -4.20876899E-04   -3.93355164E-01    3.78629246E-02    3.12751913E-06    1.96238814E+00    1.96239127E+00   
                   9.00000000E+01    1.52000000E+02    2.37119056E-04   -4.78146603E-04   -3.64293924E-01    7.15632593E-02    3.57952590E-06    1.73203999E+00    1.73204357E+00   
                   9.00000000E+01    1.54000000E+02    1.97984261E-04   -5.24792330E-04   -3.31739475E-01    9.75552817E-02    3.95343998E-06    1.50253721E+00    1.50254116E+00   
                   9.00000000E+01    1.56000000E+02    1.53923215E-04   -5.60482331E-04   -2.97407700E-01    1.15996956E-01    4.24533217E-06    1.28059653E+00    1.28060078E+00   
                   9.00000000E+01    1.58000000E+02    1.07971770E-04   -5.85752069E-04   -2.62735179E-01    1.27375200E-01    4.45808823E-06    1.07133607E+00    1.07134053E+00   
                   9.00000000E+01    1.60000000E+02    6.25962777E-05   -6.01743879E-04   -2.28847741E-01    1.32393722E-01    4.59946744E-06    8.78381594E-01    8.78386194E-01   
                   9.00000000E+01    1.62000000E+02    1.96586853E-05   -6.09964895E-04   -1.96560467E-01    1.31873874E-01    4.68026477E-06    7.04052727E-01    7.04057408E-01   
                   9.00000000E+01    1.64000000E+02   -1.95511380E-05   -6.12082737E-04   -1.66399830E-01    1.26673880E-01    4.71273485E-06    5.49592420E-01    5.49597133E-01   
                   9.00000000E+01    1.66000000E+02   -5.42396043E-05   -6.09767537E-04   -1.38639303E-01    1.17628347E-01    4.70935274E-06    4.15410088E-01    4.15414797E-01   
                   9.00000000E+01    1.68000000E+02   -8.40108434E-05   -6.04580582E-04   -1.13341148E-01    1.05507458E-01    4.68192184E-06    3.01316931E-01    3.01321613E-01   
                   9.00000000E+01    1.70000000E+02   -1.08761563E-04   -5.97904353E-04   -9.03988794E-02    9.09936183E-02    4.64099558E-06    2.06739366E-01    2.06744007E-01   
                   9.00000000E+01    1.72000000E+02   -1.28580727E-04   -5.90905783E-04   -6.95766846E-02    7.46725915E-02    4.59555501E-06    1.30902764E-01    1.30907359E-01   
                   9.00000000E+01    1.74000000E+02   -1.43661132E-04   -5.84523521E-04   -5.05436717E-02    5.70359346E-02    4.55287483E-06    7.29824721E-02    7.29870249E-02   
                   9.00000000E+01    1.76000000E+02   -1.54226565E-04   -5.79470373E-04   -3.29021516E-02    3.84917864E-02    4.51851183E-06    3.22223004E-02    3.22268189E-02   
                   9.00000000E+01    1.78000000E+02   -1.60475838E-04   -5.76243253E-04   -1.62101528E-02    1.93814822E-02    4.49635775E-06    8.02250807E-03    8.02700443E-03   
                   9.00000000E+01    1.80000000E+02   -1.62543592E-04   -5.75134580E-04    9.11024062E-07   -2.05927363E-08    4.48871015E-06    1.04349747E-11    4.48872058E-06   
                   9.00000000E+01    1.82000000E+02   -1.60477227E-04   -5.76240822E-04    1.62120361E-02   -1.93814696E-02    4.49632815E-06    8.02326923E-03    8.02776555E-03   
                   9.00000000E+01    1.84000000E+02   -1.54229288E-04   -5.79465628E-04    3.29042167E-02   -3.84916094E-02    4.51845327E-06    3.22238370E-02    3.22283554E-02   
                   9.00000000E+01    1.86000000E+02   -1.43665070E-04   -5.84516687E-04    5.05460336E-02   -5.70354745E-02    4.55278865E-06    7.29848128E-02    7.29893655E-02   
                   9.00000000E+01    1.88000000E+02   -1.28585693E-04   -5.90897181E-04    6.95794477E-02   -7.46717157E-02    4.59544330E-06    1.30905952E-01    1.30910547E-01   
                   9.00000000E+01    1.90000000E+02   -1.08767283E-04   -5.97894373E-04    9.04021323E-02   -9.09921767E-02    4.64086124E-06    2.06743459E-01    2.06748100E-01   
                   9.00000000E+01    1.92000000E+02   -8.40169461E-05   -6.04569650E-04    1.13344957E-01   -1.05505279E-01    4.68176862E-06    3.01322003E-01    3.01326685E-01   
                   9.00000000E+01    1.94000000E+02   -5.42456099E-05   -6.09756077E-04    1.38643704E-01   -1.17625238E-01    4.70918530E-06    4.15416228E-01    4.15420937E-01   
                   9.00000000E+01    1.96000000E+02   -1.95564565E-05   -6.12071117E-04    1.66404818E-01   -1.26669624E-01    4.71255871E-06    5.49599733E-01    5.49604445E-01   
                   9.00000000E+01    1.98000000E+02    1.96547449E-05   -6.09953373E-04    1.96565988E-01   -1.31868241E-01    4.68008620E-06    7.04061331E-01    7.04066011E-01   
                   9.00000000E+01    2.00000000E+02    6.25944807E-05   -6.01732543E-04    2.28853681E-01   -1.32386469E-01    4.59929318E-06    8.78391622E-01    8.78396221E-01   
                   9.00000000E+01    2.02000000E+02    1.07972909E-04   -5.85740782E-04    2.62741352E-01   -1.27366088E-01    4.45792516E-06    1.07134767E+00    1.07135213E+00   
                   9.00000000E+01    2.04000000E+02    1.53928039E-04   -5.60470688E-04    2.97413846E-01   -1.15985766E-01    4.24518681E-06    1.28060985E+00    1.28061409E+00   
                   9.00000000E+01    2.06000000E+02    1.97993384E-04   -5.24779630E-04    3.31745252E-01   -9.75418340E-02    3.95331787E-06    1.50255241E+00    1.50255636E+00   
                   9.00000000E+01    2.08000000E+02    2.37132845E-04   -4.78131864E-04    3.64298913E-01   -7.15474429E-02    3.57943096E-06    1.73205722E+00    1.73206080E+00   
                   9.00000000E+01    2.10000000E+02    2.67866739E-04   -4.20858905E-04    3.93358878E-01   -3.78447217E-02    3.12745307E-06    1.96240754E+00    1.96241067E+00   
                   9.00000000E+01    2.12000000E+02    2.86508309E-04   -3.54406017E-04    4.17001397E-01    3.27965507E-03    2.60991751E-06    2.18530342E+00    2.18530603E+00   
                   9.00000000E+01    2.14000000E+02    2.89519451E-04   -2.81520096E-04    4.33212499E-01    5.09896349E-02    2.04926186E-06    2.39104119E+00    2.39104324E+00   
                   9.00000000E+01    2.16000000E+02    2.73976689E-04   -2.06324695E-04    4.40052966E-01    1.03823908E-01    1.47822121E-06    2.56889309E+00    2.56889457E+00   
                   9.00000000E+01    2.18000000E+02    2.38114252E-04   -1.34225056E-04    4.35864868E-01    1.59669785E-01    9.38893400E-07    2.70770885E+00    2.70770978E+00   
                   9.00000000E+01    2.20000000E+02    1.81882632E-04   -7.15937646E-05    4.19504881E-01    2.15807503E-01    4.80122806E-07    2.79673655E+00    2.79673703E+00   
                   9.00000000E+01    2.22000000E+02    1.07432904E-04   -2.52093211E-05    3.90579649E-01    2.69041580E-01    1.53024951E-07    2.82662705E+00    2.82662721E+00   
                   9.00000000E+01    2.24000000E+02    1.94161071E-05   -1.45689571E-06    3.49649370E-01    3.15927061E-01    4.76400863E-09    2.79054594E+00    2.79054594E+00   
                   9.00000000E+01    2.26000000E+02   -7.50187057E-05   -5.35088843E-06    2.98359717E-01    3.53084915E-01    7.10808989E-08    2.68527604E+00    2.68527611E+00   
                   9.00000000E+01    2.28000000E+02   -1.66626500E-04   -3.94962840E-05    2.39461806E-01    3.77583442E-01    3.68500611E-07    2.51215838E+00    2.51215875E+00   
                   9.00000000E+01    2.30000000E+02   -2.44920769E-04   -1.03159232E-04    1.76687281E-01    3.87343781E-01    8.87537753E-07    2.27769991E+00    2.27770079E+00   
                   9.00000000E+01    2.32000000E+02   -2.99457714E-04   -1.91652090E-04    1.14462065E-01    3.81510964E-01    1.58845769E-06    1.99368209E+00    1.99368368E+00   
                   9.00000000E+01    2.34000000E+02   -3.21430740E-04   -2.96238647E-04    5.74672287E-02    3.60722157E-01    2.40111998E-06    1.67664232E+00    1.67664473E+00   
                   9.00000000E+01    2.36000000E+02   -3.05354318E-04   -4.04718685E-04    1.00860494E-02    3.27204930E-01    3.23004073E-06    1.34667252E+00    1.34667575E+00   
                   9.00000000E+01    2.38000000E+02   -2.50533266E-04   -5.02752793E-04   -2.41926049E-02    2.84654074E-01    3.96503284E-06    1.02558202E+00    1.02558599E+00   
                   9.00000000E+01    2.40000000E+02   -1.61976269E-04   -5.75846028E-04   -4.33200039E-02    2.37866124E-01    4.49668672E-06    7.34591265E-01    7.34595762E-01   
                   9.00000000E+01    2.42000000E+02   -5.04447934E-05   -6.11745013E-04   -4.70774926E-02    1.92153426E-01    4.73471487E-06    4.91838064E-01    4.91842798E-01   
                   9.00000000E+01    2.44000000E+02    6.85571877E-05   -6.02852814E-04   -3.72157143E-02    1.52607541E-01    4.62607816E-06    3.10063519E-01    3.10068146E-01   
                   9.00000000E+01    2.46000000E+02    1.76857503E-04   -5.48171854E-04   -1.72810580E-02    1.23324724E-01    4.16915681E-06    1.94874531E-01    1.94878700E-01   
                   9.00000000E+01    2.48000000E+02    2.56522974E-04   -4.54286208E-04    7.87955457E-03    1.06732991E-01    3.42031469E-06    1.43935445E-01    1.43938865E-01   
                   9.00000000E+01    2.50000000E+02    2.93135801E-04   -3.35013798E-04    3.28794440E-02    1.03160755E-01    2.49018772E-06    1.47318066E-01    1.47320556E-01   
                   9.00000000E+01    2.52000000E+02    2.78807596E-04   -2.09592192E-04    5.26990647E-02    1.10756075E-01    1.52885685E-06    1.89049731E-01    1.89051260E-01   
                   9.00000000E+01    2.54000000E+02    2.14253562E-04   -9.95721465E-05    6.35736056E-02    1.25805040E-01    7.01444769E-07    2.49675080E-01    2.49675781E-01   
                   9.00000000E+01    2.56000000E+02    1.09360778E-04   -2.49146588E-05    6.36814624E-02    1.43417695E-01    1.58091478E-07    3.09433856E-01    3.09434014E-01   
                   9.00000000E+01    2.58000000E+02   -1.80479996E-05   -3.81388387E-08    5.34790758E-02    1.58467114E-01    4.09326581E-09    3.51504481E-01    3.51504485E-01   
                   9.00000000E+01    2.60000000E+02   -1.45175213E-04   -3.06656383E-05    3.55917235E-02    1.66601901E-01    2.76664027E-07    3.64713326E-01    3.64713603E-01   
                   9.00000000E+01    2.62000000E+02   -2.48447852E-04   -1.12229917E-04    1.42613118E-02    1.65122779E-01    9.33956408E-07    3.45184594E-01    3.45185528E-01   
                   9.00000000E+01    2.64000000E+02   -3.08137214E-04   -2.30305937E-04   -5.54897335E-03    1.53531181E-01    1.85968924E-06    2.96599202E-01    2.96601062E-01   
                   9.00000000E+01    2.66000000E+02   -3.12418093E-04   -3.63109784E-04   -1.92111805E-02    1.33621540E-01    2.88340124E-06    2.29006842E-01    2.29009725E-01   
                   9.00000000E+01    2.68000000E+02   -2.59950603E-04   -4.85628490E-04   -2.34246508E-02    1.09086822E-01    3.81275429E-06    1.56434338E-01    1.56438150E-01   
                   9.00000000E+01    2.70000000E+02   -1.60359906E-04   -5.74546327E-04   -1.69259802E-02    8.47161946E-02    4.47135068E-06    9.37868758E-02    9.37913471E-02   
                   9.00000000E+01    2.72000000E+02   -3.24477568E-05   -6.12917174E-04   -7.59181964E-04    6.53578251E-02    4.73400714E-06    5.36863207E-02    5.36910547E-02   
                   9.00000000E+01    2.74000000E+02    9.95150377E-05   -5.93563352E-04    2.19531469E-02    5.48746360E-02    4.55179951E-06    4.38964228E-02    4.39009746E-02   
                   9.00000000E+01    2.76000000E+02    2.10624238E-04   -5.20458496E-04    4.66835962E-02    5.53221344E-02    3.96141784E-06    6.58464841E-02    6.58504455E-02   
                   9.00000000E+01    2.78000000E+02    2.80259309E-04   -4.07808841E-04    6.84646170E-02    6.65246623E-02    3.07691770E-06    1.14516512E-01    1.14519589E-01   
                   9.00000000E+01    2.80000000E+02    2.96030649E-04   -2.77068931E-04    8.29278753E-02    8.61330836E-02    2.06592813E-06    1.79648088E-01    1.79650154E-01   
                   9.00000000E+01    2.82000000E+02    2.55948837E-04   -1.52582751E-04    8.71920505E-02    1.10136819E-01    1.11578442E-06    2.47966819E-01    2.47967935E-01   
                   9.00000000E+01    2.84000000E+02    1.68431793E-04   -5.68190567E-05    8.04155986E-02    1.33703626E-01    3.97068084E-07    3.05907282E-01    3.05907679E-01   
                   9.00000000E+01    2.86000000E+02    5.02584179E-05   -6.20973572E-06    6.39136868E-02    1.52155093E-01    3.22260728E-08    3.42259324E-01    3.42259356E-01   
                   9.00000000E+01    2.88000000E+02   -7.69849577E-05   -8.40641188E-06    4.08389557E-02    1.61868005E-01    7.53649413E-08    3.50213081E-01    3.50213157E-01   
                   9.00000000E+01    2.90000000E+02   -1.91137430E-04   -6.14064886E-05    1.55189554E-02    1.60922348E-01    5.06478444E-07    3.28445221E-01    3.28445727E-01   
                   9.00000000E+01    2.92000000E+02   -2.73476002E-04   -1.54566367E-04   -7.39212905E-03    1.49384395E-01    1.24004802E-06    2.81113998E-01    2.81115238E-01   
                   9.00000000E+01    2.94000000E+02   -3.11742112E-04   -2.71125287E-04   -2.37656592E-02    1.29198951E-01    2.14497975E-06    2.16860062E-01    2.16862207E-01   
                   9.00000000E+01    2.96000000E+02   -3.01702574E-04   -3.91595026E-04   -3.06903162E-02    1.03746871E-01    3.07085790E-06    1.47093247E-01    1.47096318E-01   
                   9.00000000E+01    2.98000000E+02   -2.47118844E-04   -4.97274213E-04   -2.68893390E-02    7.71845592E-02    3.87483242E-06    8.39495476E-02    8.39534224E-02   
                   9.00000000E+01    3.00000000E+02   -1.58330643E-04   -5.73219315E-04   -1.28165855E-02    5.37106557E-02    4.44408410E-06    3.83161131E-02    3.83205572E-02   
                   9.00000000E+01    3.02000000E+02   -4.99002790E-05   -6.10205898E-04    9.54761211E-03    3.69000418E-02    4.71039440E-06    1.82560460E-02    1.82607564E-02   
                   9.00000000E+01    3.04000000E+02    6.21253096E-05   -6.05478654E-04    3.71265423E-02    2.92128935E-02    4.65538736E-06    2.80452903E-02    2.80499457E-02   
                   9.00000000E+01    3.06000000E+02    1.62797904E-04   -5.62348965E-04    6.62987573E-02    3.17381405E-02    4.30699178E-06    6.78940242E-02    6.78983312E-02   
                   9.00000000E+01    3.08000000E+02    2.40282433E-04   -4.88900253E-04    9.34619590E-02    4.41791755E-02    3.72918490E-06    1.34296015E-01    1.34299744E-01   
                   9.00000000E+01    3.10000000E+02    2.87067471E-04   -3.96173663E-04    1.15516403E-01    6.50460006E-02    3.00790286E-06    2.20854236E-01    2.20857244E-01   
                   9.00000000E+01    3.12000000E+02    3.00324444E-04   -2.96225267E-04    1.30205604E-01    9.19892926E-02    2.23611252E-06    3.19380961E-01    3.19383197E-01   
                   9.00000000E+01    3.14000000E+02    2.81524711E-04   -2.00387731E-04    1.36287695E-01    1.22200591E-01    1.50056798E-06    4.21065404E-01    4.21066904E-01   
                   9.00000000E+01    3.16000000E+02    2.35525307E-04   -1.17963253E-04    1.33543575E-01    1.52807269E-01    8.71949035E-07    5.17532752E-01    5.17533624E-01   
                   9.00000000E+01    3.18000000E+02    1.69374340E-04   -5.54525463E-05    1.22652443E-01    1.81206710E-01    3.99141256E-07    6.01671460E-01    6.01671859E-01   
                   9.00000000E+01    3.20000000E+02    9.10735219E-05   -1.63138444E-05    1.04979006E-01    2.05305607E-01    1.07574766E-07    6.68166293E-01    6.68166401E-01   
                   9.00000000E+01    3.22000000E+02    8.48438993E-06   -1.16398966E-06    8.23197976E-02    2.23652249E-01    9.21614409E-10    7.13730615E-01    7.13730616E-01   