##File Type: Far field
##File Format: 5
##Source: RWG_wire_XY_rad_theta450.0004
##Date: 2020-09-16 10:50:29
** File exported by POSTFEKO version 2018-319328 (x64)

#Configuration Name: StandardConfiguration1
#Request Name: FarField1
#Frequency: 3.00000000E+08
#Coordinate System: Spherical
#No. of Theta Samples: 1
#No. of Phi Samples: 181
#Result Type: RCS
#Incident Wave Direction: (4.50000000E+01, 0.00000000E+00)
#No. of Header Lines: 1
#                 "Theta"           "Phi"             "Re(Etheta)"      "Im(Etheta)"      "Re(Ephi)"        "Im(Ephi)"        "RCS(Theta)"      "RCS(Phi)"        "RCS(Total)"      
                   9.00000000E+01    0.00000000E+00    3.21631142E-07   -3.43564599E-07   -5.61537677E-07   -9.06465514E-08    2.78324029E-12    4.06574063E-12    6.84898093E-12   
                   9.00000000E+01    2.00000000E+00    3.16813228E-07   -3.50428761E-07    1.56943238E-02   -1.28845555E-02    2.80444872E-12    5.18141082E-03    5.18141082E-03   
                   9.00000000E+01    4.00000000E+00    3.09163946E-07   -3.58255607E-07    3.11075784E-02   -2.61194582E-02    2.81398015E-12    2.07333495E-02    2.07333495E-02   
                   9.00000000E+01    6.00000000E+00    2.98607258E-07   -3.66761948E-07    4.59405788E-02   -4.00401641E-02    2.81085359E-12    4.66683779E-02    4.66683779E-02   
                   9.00000000E+01    8.00000000E+00    2.85122079E-07   -3.75526980E-07    5.98620388E-02   -5.49506180E-02    2.79369410E-12    8.29761738E-02    8.29761738E-02   
                   9.00000000E+01    1.00000000E+01    2.68771246E-07   -3.84004764E-07    7.24950854E-02   -7.11046333E-02    2.76080198E-12    1.29576953E-01    1.29576953E-01   
                   9.00000000E+01    1.20000000E+01    2.49737502E-07   -3.91547530E-07    8.34087427E-02   -8.86840426E-02    2.71029331E-12    1.86257209E-01    1.86257209E-01   
                   9.00000000E+01    1.40000000E+01    2.28362740E-07   -3.97442736E-07    9.21157506E-02   -1.07773469E-01    2.64032352E-12    2.52589479E-01    2.52589479E-01   
                   9.00000000E+01    1.60000000E+01    2.05185127E-07   -4.00966515E-07    9.80788810E-02   -1.28332230E-01    2.54940347E-12    3.27839370E-01    3.27839370E-01   
                   9.00000000E+01    1.80000000E+01    1.80966949E-07   -4.01455075E-07    1.00728005E-01   -1.50164865E-01    2.43681045E-12    4.10865250E-01    4.10865250E-01   
                   9.00000000E+01    2.00000000E+01    1.56704375E-07   -3.98393491E-07    9.94899791E-02   -1.72892974E-01    2.30308442E-12    5.00018858E-01    5.00018858E-01   
                   9.00000000E+01    2.20000000E+01    1.33609293E-07   -3.91518064E-07    9.38327968E-02   -1.95932358E-01    2.15058150E-12    5.93058333E-01    5.93058333E-01   
                   9.00000000E+01    2.40000000E+01    1.13053471E-07   -3.80924161E-07    8.33242550E-02   -2.18480768E-01    1.98403267E-12    6.87088652E-01    6.87088652E-01   
                   9.00000000E+01    2.60000000E+01    9.64671020E-08   -3.67166324E-07    6.77034953E-02   -2.39522583E-01    1.81102778E-12    7.78547366E-01    7.78547366E-01   
                   9.00000000E+01    2.80000000E+01    8.51881006E-08   -3.51332384E-07    4.69611901E-02   -2.57857174E-01    1.64231728E-12    8.63255318E-01    8.63255318E-01   
                   9.00000000E+01    3.00000000E+01    8.02655273E-08   -3.35069114E-07    2.14209784E-02   -2.72157186E-01    1.49180244E-12    9.36551396E-01    9.36551396E-01   
                   9.00000000E+01    3.20000000E+01    8.22304137E-08   -3.20535347E-07   -8.18865914E-03   -2.81060982E-01    1.37607726E-12    9.93526535E-01    9.93526535E-01   
                   9.00000000E+01    3.40000000E+01    9.08591894E-08   -3.10260827E-07   -4.06859873E-02   -2.83299897E-01    1.31340153E-12    1.02936396E+00    1.02936396E+00   
                   9.00000000E+01    3.60000000E+01    1.04967352E-07   -3.06897153E-07   -7.44269443E-02   -2.77855473E-01    1.32203255E-12    1.03977963E+00    1.03977963E+00   
                   9.00000000E+01    3.80000000E+01    1.22281369E-07   -3.12861795E-07   -1.07351186E-01   -2.64134863E-01    1.41792939E-12    1.02153915E+00    1.02153915E+00   
                   9.00000000E+01    4.00000000E+01    1.39441631E-07   -3.29897292E-07   -1.37095887E-01   -2.42144840E-01    1.61196617E-12    9.73006605E-01    9.73006605E-01   
                   9.00000000E+01    4.20000000E+01    1.52184949E-07   -3.58593364E-07   -1.61183046E-01   -2.12637563E-01    1.90693995E-12    8.94659082E-01    8.94659082E-01   
                   9.00000000E+01    4.40000000E+01    1.55738254E-07   -3.97945890E-07   -1.77275254E-01   -1.77196338E-01    2.29481198E-12    7.89482961E-01    7.89482961E-01   
                   9.00000000E+01    4.60000000E+01    1.45424543E-07   -4.45047471E-07   -1.83480820E-01   -1.38229052E-01    2.75474384E-12    6.63158569E-01    6.63158569E-01   
                   9.00000000E+01    4.80000000E+01    1.17438895E-07   -4.95012257E-07   -1.78673761E-01   -9.88427396E-02    3.25254149E-12    5.23944772E-01    5.23944772E-01   
                   9.00000000E+01    5.00000000E+01    6.97021403E-08   -5.41225630E-07   -1.62780125E-01   -6.25860241E-02    3.74205871E-12    3.82198363E-01    3.82198363E-01   
                   9.00000000E+01    5.20000000E+01    2.65185296E-09   -5.75972175E-07   -1.36973409E-01   -3.30667813E-02    4.16890575E-12    2.49506883E-01    2.49506883E-01   
                   9.00000000E+01    5.40000000E+01   -8.02023754E-08   -5.91432722E-07   -1.03722171E-01   -1.34782882E-02    4.47645644E-12    1.37475503E-01    1.37475503E-01   
                   9.00000000E+01    5.60000000E+01   -1.72136192E-07   -5.80959431E-07   -6.66454226E-02   -6.09409698E-03    4.61367674E-12    5.62816371E-02    5.62816371E-02   
                   9.00000000E+01    5.80000000E+01   -2.63620874E-07   -5.40450735E-07   -3.01572415E-02   -1.18140273E-02    4.54378551E-12    1.31825055E-02    1.31825055E-02   
                   9.00000000E+01    6.00000000E+01   -3.43346997E-07   -4.69575677E-07    1.08090548E-03   -2.98542351E-02    4.25231502E-12    1.12147784E-02    1.12147784E-02   
                   9.00000000E+01    6.20000000E+01   -3.99803248E-07   -3.72563005E-07    2.28385911E-02   -5.76673623E-02    3.75289417E-12    4.83444101E-02    4.83444101E-02   
                   9.00000000E+01    6.40000000E+01   -4.23215035E-07   -2.58294301E-07    3.20238738E-02   -9.11510607E-02    3.08915208E-12    1.17295061E-01    1.17295061E-01   
                   9.00000000E+01    6.60000000E+01   -4.07521155E-07   -1.39533023E-07    2.72909818E-02   -1.25155933E-01    2.33160156E-12    2.06199128E-01    2.06199128E-01   
                   9.00000000E+01    6.80000000E+01   -3.51986673E-07   -3.12768411E-08    9.41541743E-03   -1.54243784E-01    1.56919862E-12    3.00082354E-01    3.00082354E-01   
                   9.00000000E+01    7.00000000E+01   -2.62048590E-07    5.15851142E-08   -1.86711056E-02   -1.73585736E-01    8.96365342E-13    3.83030743E-01    3.83030743E-01   
                   9.00000000E+01    7.20000000E+01   -1.49086431E-07    9.69369619E-08   -5.22389295E-02   -1.79841987E-01    3.97393104E-13    4.40728331E-01    4.40728331E-01   
                   9.00000000E+01    7.40000000E+01   -2.89988065E-08    9.79108277E-08   -8.54887230E-02   -1.71845240E-01    1.31035339E-13    4.62933888E-01    4.62933888E-01   
                   9.00000000E+01    7.60000000E+01    8.02811420E-08    5.46202160E-08   -1.12543550E-01   -1.50928030E-01    1.18481143E-13    4.45419039E-01    4.45419039E-01   
                   9.00000000E+01    7.80000000E+01    1.61937609E-07   -2.53114950E-08   -1.28528214E-01   -1.20792060E-01    3.37588773E-13    3.90942600E-01    3.90942600E-01   
                   9.00000000E+01    8.00000000E+01    2.03493566E-07   -1.27677302E-07   -1.30521047E-01   -8.69067865E-02    7.25219387E-13    3.08988622E-01    3.08988622E-01   
                   9.00000000E+01    8.20000000E+01    1.99418292E-07   -2.34014813E-07   -1.18170859E-01   -5.55268135E-02    1.18790641E-12    2.14226194E-01    2.14226194E-01   
                   9.00000000E+01    8.40000000E+01    1.52507509E-07   -3.24958479E-07   -9.38285819E-02   -3.25092993E-02    1.61925921E-12    1.23912674E-01    1.23912674E-01   
                   9.00000000E+01    8.60000000E+01    7.36482901E-08   -3.83971119E-07   -6.21402230E-02   -2.21695978E-02    1.92086891E-12    5.47001344E-02    5.47001344E-02   
                   9.00000000E+01    8.80000000E+01   -2.00804015E-08   -4.00675930E-07   -2.91643451E-02   -2.64185888E-02    2.02248728E-12    1.94590357E-02    1.94590357E-02   
                   9.00000000E+01    9.00000000E+01   -1.08646049E-07   -3.73053865E-07   -1.18595716E-03   -4.43735660E-02    1.89718455E-12    2.47610262E-02    2.47610262E-02   
                   9.00000000E+01    9.20000000E+01   -1.72996588E-07   -3.07993345E-07    1.65280122E-02   -7.25356622E-02    1.56812874E-12    6.95498031E-02    6.95498031E-02   
                   9.00000000E+01    9.40000000E+01   -1.98869103E-07   -2.20032793E-07    2.07681280E-02   -1.05502992E-01    1.10538006E-12    1.45294845E-01    1.45294845E-01   
                   9.00000000E+01    9.60000000E+01   -1.79663937E-07   -1.28537114E-07    1.09958813E-02   -1.37069698E-01    6.13250445E-13    2.37617647E-01    2.37617647E-01   
                   9.00000000E+01    9.80000000E+01   -1.17776863E-07   -5.38983690E-08   -1.05955930E-02   -1.61476061E-01    2.10818757E-13    3.29072845E-01    3.29072845E-01   
                   9.00000000E+01    1.00000000E+02   -2.41250425E-08   -1.35618232E-08   -3.95774963E-02   -1.74544433E-01    9.62509502E-15    4.02527711E-01    4.02527711E-01   
                   9.00000000E+01    1.02000000E+02    8.39988558E-08   -1.87011907E-08   -7.02206461E-02   -1.74466634E-01    9.30607893E-14    4.44466816E-01    4.44466816E-01   
                   9.00000000E+01    1.04000000E+02    1.86253858E-07   -7.22005628E-08   -9.66616560E-02   -1.62091537E-01    5.01441177E-13    4.47578210E-01    4.47578210E-01   
                   9.00000000E+01    1.06000000E+02    2.63038980E-07   -1.68292676E-07   -1.14051365E-01   -1.40675138E-01    1.22537105E-12    4.12141875E-01    4.12141875E-01   
                   9.00000000E+01    1.08000000E+02    2.98966742E-07   -2.93834734E-07   -1.19454128E-01   -1.15171093E-01    2.20816218E-12    3.45998293E-01    3.45998293E-01   
                   9.00000000E+01    1.10000000E+02    2.85365627E-07   -4.30864625E-07   -1.12333572E-01   -9.12306409E-02    3.35619945E-12    2.63163191E-01    2.63163191E-01   
                   9.00000000E+01    1.12000000E+02    2.21407815E-07   -5.59848174E-07   -9.45578585E-02   -7.41279231E-02    4.55469860E-12    1.81409855E-01    1.81409855E-01   
                   9.00000000E+01    1.14000000E+02    1.13773408E-07   -6.62944956E-07   -6.99605362E-02   -6.78234069E-02    5.68553378E-12    1.19311295E-01    1.19311295E-01   
                   9.00000000E+01    1.16000000E+02   -2.49384241E-08   -7.26688674E-07   -4.35781325E-02   -7.43302965E-02    6.64381946E-12    9.32933212E-02    9.32933212E-02   
                   9.00000000E+01    1.18000000E+02   -1.78622383E-07   -7.43664203E-07   -2.07359904E-02   -9.34721384E-02    7.35060302E-12    1.15196195E-01    1.15196195E-01   
                   9.00000000E+01    1.20000000E+02   -3.30374019E-07   -7.13010145E-07   -6.16308188E-03   -1.23034618E-01    7.76011661E-12    1.90700968E-01    1.90700968E-01   
                   9.00000000E+01    1.22000000E+02   -4.64981744E-07   -6.39820732E-07   -3.28829367E-03   -1.59240161E-01    7.86125242E-12    3.18786728E-01    3.18786729E-01   
                   9.00000000E+01    1.24000000E+02   -5.70813624E-07   -5.33712071E-07   -1.38165815E-02   -1.97424372E-01    7.67399060E-12    4.92190563E-01    4.92190563E-01   
                   9.00000000E+01    1.26000000E+02   -6.40883290E-07   -4.06924315E-07   -3.76187511E-02   -2.32774803E-01    7.24223551E-12    6.98681152E-01    6.98681152E-01   
                   9.00000000E+01    1.28000000E+02   -6.73063267E-07   -2.72347112E-07   -7.29083539E-02   -2.61003403E-01    6.62482862E-12    9.22854210E-01    9.22854210E-01   
                   9.00000000E+01    1.30000000E+02   -6.69568045E-07   -1.41795352E-07   -1.16634459E-01   -2.78856710E-01    5.88643091E-12    1.14812220E+00    1.14812220E+00   
                   9.00000000E+01    1.32000000E+02   -6.35928887E-07   -2.47538594E-08   -1.64995568E-01   -2.84411818E-01    5.08961010E-12    1.35859581E+00    1.35859581E+00   
                   9.00000000E+01    1.34000000E+02   -5.79720033E-07    7.23148783E-08   -2.13977815E-01   -2.77150624E-01    4.28896209E-12    1.54062414E+00    1.54062414E+00   
                   9.00000000E+01    1.36000000E+02   -5.09278764E-07    1.46118756E-07   -2.59835654E-01   -2.57841448E-01    3.52757565E-12    1.68385319E+00    1.68385319E+00   
                   9.00000000E+01    1.38000000E+02   -4.32606339E-07    1.96241390E-07   -2.99458811E-01   -2.28280887E-01    2.83571372E-12    1.78175732E+00    1.78175732E+00   
                   9.00000000E+01    1.40000000E+02   -3.56563016E-07    2.24551020E-07   -3.30598387E-01   -1.90958449E-01    2.23128910E-12    1.83167949E+00    1.83167949E+00   
                   9.00000000E+01    1.42000000E+02   -2.86396649E-07    2.34467805E-07   -3.51951596E-01   -1.48703848E-01    1.72157005E-12    1.83447347E+00    1.83447347E+00   
                   9.00000000E+01    1.44000000E+02   -2.25583806E-07    2.30225112E-07   -3.63124810E-01   -1.04365446E-01    1.30554105E-12    1.79387169E+00    1.79387169E+00   
                   9.00000000E+01    1.46000000E+02   -1.75922000E-07    2.16224535E-07   -3.64506673E-01   -6.05523846E-02    9.76427100E-13    1.71570801E+00    1.71570801E+00   
                   9.00000000E+01    1.48000000E+02   -1.37792527E-07    1.96542960E-07   -3.57087237E-01   -1.94562825E-02    7.24022951E-13    1.60711115E+00    1.60711115E+00   
                   9.00000000E+01    1.50000000E+02   -1.10512403E-07    1.74611695E-07   -3.42256862E-01    1.72460869E-02    5.36612113E-13    1.47575922E+00    1.47575922E+00   
                   9.00000000E+01    1.52000000E+02   -9.27056139E-08    1.53057893E-07   -3.21612271E-01    4.84183916E-02    4.02388373E-13    1.32925552E+00    1.32925552E+00   
                   9.00000000E+01    1.54000000E+02   -8.26424036E-08    1.33679395E-07   -2.96788809E-01    7.34342261E-02    3.10388694E-13    1.17465635E+00    1.17465635E+00   
                   9.00000000E+01    1.56000000E+02   -7.85154073E-08    1.17515313E-07   -2.69329460E-01    9.21084919E-02    2.51007195E-13    1.01815665E+00    1.01815665E+00   
                   9.00000000E+01    1.58000000E+02   -7.86395416E-08    1.04974104E-07   -2.40593859E-01    1.04608004E-01    2.16188572E-13    8.64921168E-01    8.64921168E-01   
                   9.00000000E+01    1.60000000E+02   -8.15764449E-08    9.59859283E-08   -2.11705037E-01    1.11355972E-01    1.99403355E-13    7.19037363E-01    7.19037363E-01   
                   9.00000000E+01    1.62000000E+02   -8.61933784E-08    9.01539910E-08   -1.83528129E-01    1.12941353E-01    1.95495538E-13    5.83561183E-01    5.83561183E-01   
                   9.00000000E+01    1.64000000E+02   -9.16711255E-08    8.68882208E-08   -1.56673620E-01    1.10040254E-01    2.00473298E-13    4.60626356E-01    4.60626356E-01   
                   9.00000000E+01    1.66000000E+02   -9.74765081E-08    8.55125276E-08   -1.31517440E-01    1.03353154E-01    2.11291735E-13    3.51590857E-01    3.51590857E-01   
                   9.00000000E+01    1.68000000E+02   -1.03313813E-07    8.53431518E-08   -1.08230973E-01    9.35590202E-02    2.25656799E-13    2.57198844E-01    2.57198844E-01   
                   9.00000000E+01    1.70000000E+02   -1.09066758E-07    8.57400271E-08   -8.68153357E-02    8.12854846E-02    2.41863803E-13    1.77741668E-01    1.77741668E-01   
                   9.00000000E+01    1.72000000E+02   -1.14739513E-07    8.61357194E-08   -6.71357772E-02    6.70931157E-02    2.58672683E-13    1.13206647E-01    1.13206647E-01   
                   9.00000000E+01    1.74000000E+02   -1.20402336E-07    8.60476848E-08   -4.89535337E-02    5.14712746E-02    2.75215161E-13    6.34066461E-02    6.34066461E-02   
                   9.00000000E+01    1.76000000E+02   -1.26144950E-07    8.50797202E-08   -3.19537584E-02    3.48429715E-02    2.90925392E-13    2.80867851E-02    2.80867851E-02   
                   9.00000000E+01    1.78000000E+02   -1.32039030E-07    8.29179272E-08   -1.57691874E-02    1.75763269E-02    3.05484551E-13    7.00693963E-03    7.00693963E-03   
                   9.00000000E+01    1.80000000E+02   -1.38110126E-07    7.93255683E-08    9.66439874E-09    5.64332321E-07    3.18770527E-13    4.00319793E-12    4.32196846E-12   
                   9.00000000E+01    1.82000000E+02   -1.44318834E-07    7.41400864E-08    1.57692005E-02   -1.75752035E-02    3.30805664E-13    7.00644859E-03    7.00644859E-03   
                   9.00000000E+01    1.84000000E+02   -1.50551089E-07    6.72743850E-08    3.19537531E-02   -3.48418641E-02    3.41698132E-13    2.80858110E-02    2.80858110E-02   
                   9.00000000E+01    1.86000000E+02   -1.56617671E-07    5.87232737E-08    4.89534983E-02   -5.14701946E-02    3.51575857E-13    6.34052054E-02    6.34052054E-02   
                   9.00000000E+01    1.88000000E+02   -1.62263471E-07    4.85747693E-08    6.71357013E-02   -6.70920753E-02    3.60515879E-13    1.13204765E-01    1.13204765E-01   
                   9.00000000E+01    1.90000000E+02   -1.67187362E-07    3.70246756E-08    8.68152105E-02   -8.12844974E-02    3.68476657E-13    1.77739378E-01    1.77739378E-01   
                   9.00000000E+01    1.92000000E+02   -1.71073606E-07    2.43915393E-08    1.08230792E-01   -9.35581013E-02    3.75245973E-13    2.57196191E-01    2.57196191E-01   
                   9.00000000E+01    1.94000000E+02   -1.73635319E-07    1.11277359E-08    1.31517199E-01   -1.03352320E-01    3.80422373E-13    3.51587895E-01    3.51587895E-01   
                   9.00000000E+01    1.96000000E+02   -1.74669561E-07   -2.17881320E-09    1.56673321E-01   -1.10039522E-01    3.83452783E-13    4.60623152E-01    4.60623152E-01   
                   9.00000000E+01    1.98000000E+02   -1.74121800E-07   -1.48187328E-08    1.83527776E-01   -1.12940741E-01    3.83751774E-13    5.83557814E-01    5.83557814E-01   
                   9.00000000E+01    2.00000000E+02   -1.72155008E-07   -2.59978491E-08    2.11704639E-01   -1.11355498E-01    3.80927346E-13    7.19033915E-01    7.19033915E-01   
                   9.00000000E+01    2.02000000E+02   -1.69215426E-07   -3.49024287E-08    2.40593431E-01   -1.04607684E-01    3.75131797E-13    8.64917739E-01    8.64917739E-01   
                   9.00000000E+01    2.04000000E+02   -1.66083446E-07   -4.07967996E-08    2.69329023E-01   -9.21083412E-02    3.67542339E-13    1.01815335E+00    1.01815335E+00   
                   9.00000000E+01    2.06000000E+02   -1.63894843E-07   -4.31530356E-08    2.96788391E-01   -7.34342533E-02    3.60952709E-13    1.17465329E+00    1.17465329E+00   
                   9.00000000E+01    2.08000000E+02   -1.64115407E-07   -4.18061957E-08    3.21611903E-01   -4.84185996E-02    3.60423928E-13    1.32925280E+00    1.32925280E+00   
                   9.00000000E+01    2.10000000E+02   -1.68452283E-07   -3.71205255E-08    3.42256579E-01   -1.72464703E-02    3.73901111E-13    1.47575695E+00    1.47575695E+00   
                   9.00000000E+01    2.12000000E+02   -1.78689016E-07   -3.01428280E-08    3.57087076E-01    1.94557390E-02    4.12658932E-13    1.60710944E+00    1.60710944E+00   
                   9.00000000E+01    2.14000000E+02   -1.96439712E-07   -2.27103577E-08    3.64506667E-01    6.05517071E-02    4.91399388E-13    1.71570693E+00    1.71570693E+00   
                   9.00000000E+01    2.16000000E+02   -2.22831154E-07   -1.74743033E-08    3.63124989E-01    1.04364671E-01    6.27804243E-13    1.79387130E+00    1.79387130E+00   
                   9.00000000E+01    2.18000000E+02   -2.58139794E-07   -1.77989671E-08    3.51951981E-01    1.48703024E-01    8.41355662E-13    1.83447380E+00    1.83447380E+00   
                   9.00000000E+01    2.20000000E+02   -3.01431228E-07   -2.75039834E-08    3.30598984E-01    1.90957630E-01    1.15129637E-12    1.83168053E+00    1.83168053E+00   
                   9.00000000E+01    2.22000000E+02   -3.50269411E-07   -5.04345845E-08    2.99459612E-01    2.28280130E-01    1.57371559E-12    1.78175901E+00    1.78175901E+00   
                   9.00000000E+01    2.24000000E+02   -4.00576326E-07   -8.98736585E-08    2.59836635E-01    2.57840809E-01    2.11791936E-12    1.68385545E+00    1.68385545E+00   
                   9.00000000E+01    2.26000000E+02   -4.46723977E-07   -1.47847212E-07    2.13978932E-01    2.77150151E-01    2.78245972E-12    1.54062685E+00    1.54062685E+00   
                   9.00000000E+01    2.28000000E+02   -4.81923806E-07   -2.24416600E-07    1.64996763E-01    2.84411543E-01    3.55142429E-12    1.35859881E+00    1.35859881E+00   
                   9.00000000E+01    2.30000000E+02   -4.98940493E-07   -3.17087919E-07    1.16635668E-01    2.78856647E-01    4.39177518E-12    1.14812531E+00    1.14812531E+00   
                   9.00000000E+01    2.32000000E+02   -4.91098381E-07   -4.20490150E-07    7.29095084E-02    2.61003544E-01    5.25261206E-12    9.22857248E-01    9.22857248E-01   
                   9.00000000E+01    2.34000000E+02   -4.53476115E-07   -5.26467676E-07    3.76197901E-02    2.32775115E-01    6.06715433E-12    6.98683959E-01    6.98683959E-01   
                   9.00000000E+01    2.36000000E+02   -3.84111507E-07   -6.24690940E-07    1.38174593E-02    1.97424803E-01    6.75794808E-12    4.92193007E-01    4.92193007E-01   
                   9.00000000E+01    2.38000000E+02   -2.84982328E-07   -7.03809275E-07    3.28898705E-03    1.59240646E-01    7.24529709E-12    3.18788726E-01    3.18788726E-01   
                   9.00000000E+01    2.40000000E+02   -1.62509777E-07   -7.53059563E-07    6.16359462E-03    1.23035088E-01    7.45824316E-12    1.90702499E-01    1.90702499E-01   
                   9.00000000E+01    2.42000000E+02   -2.73664448E-08   -7.64121792E-07    2.07363535E-02    9.34725299E-02    7.34669026E-12    1.15197304E-01    1.15197304E-01   
                   9.00000000E+01    2.44000000E+02    1.06532819E-07   -7.32905176E-07    4.35784001E-02    7.43305660E-02    6.89264471E-12    9.32941177E-02    9.32941177E-02   
                   9.00000000E+01    2.46000000E+02    2.23828038E-07   -6.60888263E-07    6.99607763E-02    6.78235368E-02    6.11821760E-12    1.19311938E-01    1.19311938E-01   
                   9.00000000E+01    2.48000000E+02    3.10089365E-07   -5.55651213E-07    9.45581411E-02    7.41279269E-02    5.08816977E-12    1.81410534E-01    1.81410534E-01   
                   9.00000000E+01    2.50000000E+02    3.54388868E-07   -4.30343198E-07    1.12333956E-01    9.12305625E-02    3.90546133E-12    2.63164093E-01    2.63164093E-01   
                   9.00000000E+01    2.52000000E+02    3.51570772E-07   -3.02016474E-07    1.19454645E-01    1.15170999E-01    2.69945694E-12    3.45999576E-01    3.45999576E-01   
                   9.00000000E+01    2.54000000E+02    3.03702724E-07   -1.89000351E-07    1.14052017E-01    1.40675108E-01    1.60794852E-12    4.12143637E-01    4.12143637E-01   
                   9.00000000E+01    2.56000000E+02    2.20292393E-07   -1.07731343E-07    9.66624065E-02    1.62091644E-01    7.55675941E-13    4.47580467E-01    4.47580467E-01   
                   9.00000000E+01    2.58000000E+02    1.17072072E-07   -6.96376552E-08    7.02214266E-02    1.74466930E-01    2.33172439E-13    4.44469493E-01    4.44469493E-01   
                   9.00000000E+01    2.60000000E+02    1.34515150E-08   -7.87403403E-08    3.95782175E-02    1.74544939E-01    8.01858154E-14    4.02530647E-01    4.02530647E-01   
                   9.00000000E+01    2.62000000E+02   -7.09490498E-08   -1.30546305E-07    1.05961608E-02    1.61476755E-01    2.77416523E-13    3.29075812E-01    3.29075812E-01   
                   9.00000000E+01    2.64000000E+02   -1.20025965E-07   -2.12573047E-07   -1.09955467E-02    1.37070518E-01    7.48874419E-13    2.37620379E-01    2.37620379E-01   
                   9.00000000E+01    2.66000000E+02   -1.24406114E-07   -3.06505289E-07   -2.07680753E-02    1.05503845E-01    1.37504210E-12    1.45297080E-01    1.45297080E-01   
                   9.00000000E+01    2.68000000E+02   -8.34371103E-08   -3.91616318E-07   -1.65282477E-02    7.25364408E-02    2.01470452E-12    6.95513204E-02    6.95513204E-02   
                   9.00000000E+01    2.70000000E+02   -5.47916486E-09   -4.48782886E-07    1.18547291E-03    4.43741673E-02    2.53132069E-12    2.47616823E-02    2.47616823E-02   
                   9.00000000E+01    2.72000000E+02    9.36151654E-08   -4.64262608E-07    2.91636910E-02    2.64189341E-02    2.81868177E-12    1.94587855E-02    1.94587855E-02   
                   9.00000000E+01    2.74000000E+02    1.93546603E-07   -4.32433519E-07    6.21395038E-02    2.21696477E-02    2.82063543E-12    5.46990388E-02    5.46990388E-02   
                   9.00000000E+01    2.76000000E+02    2.73511923E-07   -3.56914819E-07    9.38279082E-02    3.25090605E-02    2.54088194E-12    1.23910891E-01    1.23910891E-01   
                   9.00000000E+01    2.78000000E+02    3.16218571E-07   -2.49844013E-07    1.18170327E-01    5.55263368E-02    2.04098235E-12    2.14223951E-01    2.14223951E-01   
                   9.00000000E+01    2.80000000E+02    3.11141352E-07   -1.29490967E-07    1.30520724E-01    8.69061560E-02    1.42724881E-12    3.08986187E-01    3.08986187E-01   
                   9.00000000E+01    2.82000000E+02    2.56377490E-07   -1.67442076E-08    1.28528125E-01    1.20791376E-01    8.29503437E-13    3.90940236E-01    3.90940236E-01   
                   9.00000000E+01    2.84000000E+02    1.58781944E-07    6.87750583E-08    1.12543677E-01    1.50927391E-01    3.76258680E-13    4.45416974E-01    4.45416974E-01   
                   9.00000000E+01    2.86000000E+02    3.24456804E-08    1.12176554E-07    8.54890097E-02    1.71844725E-01    1.71358817E-13    4.62932281E-01    4.62932281E-01   
                   9.00000000E+01    2.88000000E+02   -1.04077790E-07    1.05687776E-07    5.22392977E-02    1.79841643E-01    2.76486449E-13    4.40727256E-01    4.40727256E-01   
                   9.00000000E+01    2.90000000E+02   -2.31165414E-07    4.95830207E-08    1.86714678E-02    1.73585570E-01    7.02408907E-13    3.83030189E-01    3.83030189E-01   
                   9.00000000E+01    2.92000000E+02   -3.31435840E-07   -4.83950674E-08   -9.41514028E-03    1.54243769E-01    1.40984372E-12    3.00082230E-01    3.00082230E-01   
                   9.00000000E+01    2.94000000E+02   -3.92366125E-07   -1.74863285E-07   -2.72908477E-02    1.25156013E-01    2.31885157E-12    2.06199287E-01    2.06199287E-01   
                   9.00000000E+01    2.96000000E+02   -4.07808957E-07   -3.13399536E-07   -3.20239111E-02    9.11511637E-02    3.32414953E-12    1.17295327E-01    1.17295327E-01   
                   9.00000000E+01    2.98000000E+02   -3.78270907E-07   -4.47352712E-07   -2.28387961E-02    5.76674135E-02    4.31294588E-12    4.83446020E-02    4.83446020E-02   
                   9.00000000E+01    3.00000000E+02   -3.10068903E-07   -5.62333948E-07   -1.08124566E-03    2.98541700E-02    5.18189615E-12    1.12147388E-02    1.12147388E-02   
                   9.00000000E+01    3.02000000E+02   -2.13675602E-07   -6.48001890E-07    3.01568202E-02    1.18138011E-02    5.85044615E-12    1.31821190E-02    1.31821190E-02   
                   9.00000000E+01    3.04000000E+02   -1.01663981E-07   -6.98948169E-07    6.66449854E-02    6.09369030E-03    6.26891127E-12    5.62808424E-02    5.62808424E-02   
                   9.00000000E+01    3.06000000E+02    1.33370471E-08   -7.14686575E-07    1.03721783E-01    1.34777083E-02    6.42084711E-12    1.37474297E-01    1.37474297E-01   
                   9.00000000E+01    3.08000000E+02    1.20342283E-07   -6.98908769E-07    1.36973128E-01    3.30660590E-02    6.32032813E-12    2.49505314E-01    2.49505314E-01   
                   9.00000000E+01    3.10000000E+02    2.11157315E-07   -6.58266074E-07    1.62779989E-01    6.25852074E-02    6.00548907E-12    3.82196526E-01    3.82196526E-01   
                   9.00000000E+01    3.12000000E+02    2.80903133E-07   -6.00964807E-07    1.78673792E-01    9.88418860E-02    5.53002327E-12    5.23942790E-01    5.23942790E-01   
                   9.00000000E+01    3.14000000E+02    3.27968687E-07   -5.35431727E-07    1.83481015E-01    1.38228221E-01    4.95429907E-12    6.63156581E-01    6.63156581E-01   
                   9.00000000E+01    3.16000000E+02    3.53525076E-07   -4.69236335E-07    1.77275593E-01    1.77195583E-01    4.33744263E-12    7.89481106E-01    7.89481106E-01   
                   9.00000000E+01    3.18000000E+02    3.60774661E-07   -4.08370810E-07    1.61183494E-01    2.12636926E-01    3.73127053E-12    8.94657488E-01    8.94657488E-01   
                   9.00000000E+01    3.20000000E+02    3.54107911E-07   -3.56906552E-07    1.37096398E-01    2.42144348E-01    3.17646056E-12    9.73005378E-01    9.73005378E-01   
                   9.00000000E+01    3.22000000E+02    3.38311125E-07   -3.16982642E-07    1.07351713E-01    2.64134531E-01    2.70092036E-12    1.02153837E+00    1.02153837E+00   